 
 64 atoms 
 
 1 atom types
 0.00000000000000000000 10.85999999999999943157 xlo xhi
 0.00000000000000000000 10.85999999999999943157 ylo yhi
 0.00000000000000000000 10.85999999999999943157 zlo zhi
 0.00000000000000000000 0.00000000000000000000 0.00000000000000000000 xy xz yz
 
 Atoms 
 
	1	1	0.00000000000000000000	0.00000000000000000000	0.00000000000000000000
	2	1	2.71499999999999985789	2.71499999999999985789	0.00000000000000000000
	3	1	2.71499999999999985789	0.00000000000000000000	2.71499999999999985789
	4	1	0.00000000000000000000	2.71499999999999985789	2.71499999999999985789
	5	1	1.35749999999999992895	1.35749999999999992895	1.35749999999999992895
	6	1	4.07249999999999978684	4.07249999999999978684	1.35749999999999992895
	7	1	4.07249999999999978684	1.35749999999999992895	4.07249999999999978684
	8	1	1.35749999999999992895	4.07249999999999978684	4.07249999999999978684
	9	1	0.00000000000000000000	0.00000000000000000000	5.42999999999999971578
	10	1	2.71499999999999985789	2.71499999999999985789	5.42999999999999971578
	11	1	2.71499999999999985789	0.00000000000000000000	8.14499999999999957367
	12	1	0.00000000000000000000	2.71499999999999985789	8.14499999999999957367
	13	1	1.35749999999999992895	1.35749999999999992895	6.78749999999999964473
	14	1	4.07249999999999978684	4.07249999999999978684	6.78749999999999964473
	15	1	4.07249999999999978684	1.35749999999999992895	9.50249999999999950262
	16	1	1.35749999999999992895	4.07249999999999978684	9.50249999999999950262
	17	1	0.00000000000000000000	5.42999999999999971578	0.00000000000000000000
	18	1	2.71499999999999985789	8.14499999999999957367	0.00000000000000000000
	19	1	2.71499999999999985789	5.42999999999999971578	2.71499999999999985789
	20	1	0.00000000000000000000	8.14499999999999957367	2.71499999999999985789
	21	1	1.35749999999999992895	6.78749999999999964473	1.35749999999999992895
	22	1	4.07249999999999978684	9.50249999999999950262	1.35749999999999992895
	23	1	4.07249999999999978684	6.78749999999999964473	4.07249999999999978684
	24	1	1.35749999999999992895	9.50249999999999950262	4.07249999999999978684
	25	1	0.00000000000000000000	5.42999999999999971578	5.42999999999999971578
	26	1	2.71499999999999985789	8.14499999999999957367	5.42999999999999971578
	27	1	2.71499999999999985789	5.42999999999999971578	8.14499999999999957367
	28	1	0.00000000000000000000	8.14499999999999957367	8.14499999999999957367
	29	1	1.35749999999999992895	6.78749999999999964473	6.78749999999999964473
	30	1	4.07249999999999978684	9.50249999999999950262	6.78749999999999964473
	31	1	4.07249999999999978684	6.78749999999999964473	9.50249999999999950262
	32	1	1.35749999999999992895	9.50249999999999950262	9.50249999999999950262
	33	1	5.42999999999999971578	0.00000000000000000000	0.00000000000000000000
	34	1	8.14499999999999957367	2.71499999999999985789	0.00000000000000000000
	35	1	8.14499999999999957367	0.00000000000000000000	2.71499999999999985789
	36	1	5.42999999999999971578	2.71499999999999985789	2.71499999999999985789
	37	1	6.78749999999999964473	1.35749999999999992895	1.35749999999999992895
	38	1	9.50249999999999950262	4.07249999999999978684	1.35749999999999992895
	39	1	9.50249999999999950262	1.35749999999999992895	4.07249999999999978684
	40	1	6.78749999999999964473	4.07249999999999978684	4.07249999999999978684
	41	1	5.42999999999999971578	0.00000000000000000000	5.42999999999999971578
	42	1	8.14499999999999957367	2.71499999999999985789	5.42999999999999971578
	43	1	8.14499999999999957367	0.00000000000000000000	8.14499999999999957367
	44	1	5.42999999999999971578	2.71499999999999985789	8.14499999999999957367
	45	1	6.78749999999999964473	1.35749999999999992895	6.78749999999999964473
	46	1	9.50249999999999950262	4.07249999999999978684	6.78749999999999964473
	47	1	9.50249999999999950262	1.35749999999999992895	9.50249999999999950262
	48	1	6.78749999999999964473	4.07249999999999978684	9.50249999999999950262
	49	1	5.42999999999999971578	5.42999999999999971578	0.00000000000000000000
	50	1	8.14499999999999957367	8.14499999999999957367	0.00000000000000000000
	51	1	8.14499999999999957367	5.42999999999999971578	2.71499999999999985789
	52	1	5.42999999999999971578	8.14499999999999957367	2.71499999999999985789
	53	1	6.78749999999999964473	6.78749999999999964473	1.35749999999999992895
	54	1	9.50249999999999950262	9.50249999999999950262	1.35749999999999992895
	55	1	9.50249999999999950262	6.78749999999999964473	4.07249999999999978684
	56	1	6.78749999999999964473	9.50249999999999950262	4.07249999999999978684
	57	1	5.42999999999999971578	5.42999999999999971578	5.42999999999999971578
	58	1	8.14499999999999957367	8.14499999999999957367	5.42999999999999971578
	59	1	8.14499999999999957367	5.42999999999999971578	8.14499999999999957367
	60	1	5.42999999999999971578	8.14499999999999957367	8.14499999999999957367
	61	1	6.78749999999999964473	6.78749999999999964473	6.78749999999999964473
	62	1	9.50249999999999950262	9.50249999999999950262	6.78749999999999964473
	63	1	9.50249999999999950262	6.78749999999999964473	9.50249999999999950262
	64	1	6.78749999999999964473	9.50249999999999950262	9.50249999999999950262
