ITEM: TIMESTEP
0
ITEM: NUMBER OF ATOMS
64
ITEM: BOX BOUNDS xy xz yz pp pp pp
0 10.86 0
0 10.86 0
0 10.86 0
ITEM: ATOMS id type x y z 
1 1 0 0 0 
2 1 2.715 2.715 0 
3 1 2.715 0 2.715 
4 1 0 2.715 2.715 
5 1 1.3575 1.3575 1.3575 
6 1 4.0725 4.0725 1.3575 
7 1 4.0725 1.3575 4.0725 
8 1 1.3575 4.0725 4.0725 
9 1 0 0 5.43 
10 1 2.715 2.715 5.43 
11 1 2.715 0 8.145 
12 1 0 2.715 8.145 
13 1 1.3575 1.3575 6.7875 
14 1 4.0725 4.0725 6.7875 
15 1 4.0725 1.3575 9.5025 
16 1 1.3575 4.0725 9.5025 
17 1 0 5.43 0 
18 1 2.715 8.145 0 
19 1 2.715 5.43 2.715 
20 1 0 8.145 2.715 
21 1 1.3575 6.7875 1.3575 
22 1 4.0725 9.5025 1.3575 
23 1 4.0725 6.7875 4.0725 
24 1 1.3575 9.5025 4.0725 
25 1 0 5.43 5.43 
26 1 2.715 8.145 5.43 
27 1 2.715 5.43 8.145 
28 1 0 8.145 8.145 
29 1 1.3575 6.7875 6.7875 
30 1 4.0725 9.5025 6.7875 
31 1 4.0725 6.7875 9.5025 
32 1 1.3575 9.5025 9.5025 
33 1 5.43 0 0 
34 1 8.145 2.715 0 
35 1 8.145 0 2.715 
36 1 5.43 2.715 2.715 
37 1 6.7875 1.3575 1.3575 
38 1 9.5025 4.0725 1.3575 
39 1 9.5025 1.3575 4.0725 
40 1 6.7875 4.0725 4.0725 
41 1 5.43 0 5.43 
42 1 8.145 2.715 5.43 
43 1 8.145 0 8.145 
44 1 5.43 2.715 8.145 
45 1 6.7875 1.3575 6.7875 
46 1 9.5025 4.0725 6.7875 
47 1 9.5025 1.3575 9.5025 
48 1 6.7875 4.0725 9.5025 
49 1 5.43 5.43 0 
50 1 8.145 8.145 0 
51 1 8.145 5.43 2.715 
52 1 5.43 8.145 2.715 
53 1 6.7875 6.7875 1.3575 
54 1 9.5025 9.5025 1.3575 
55 1 9.5025 6.7875 4.0725 
56 1 6.7875 9.5025 4.0725 
57 1 5.43 5.43 5.43 
58 1 8.145 8.145 5.43 
59 1 8.145 5.43 8.145 
60 1 5.43 8.145 8.145 
61 1 6.7875 6.7875 6.7875 
62 1 9.5025 9.5025 6.7875 
63 1 9.5025 6.7875 9.5025 
64 1 6.7875 9.5025 9.5025 
ITEM: TIMESTEP
1
ITEM: NUMBER OF ATOMS
64
ITEM: BOX BOUNDS xy xz yz pp pp pp
0.00290082 10.8571 0
0.00290082 10.8571 0
0.00290082 10.8571 0
ITEM: ATOMS id type x y z 
1 1 0.00290082 0.00290082 0.00290082 
2 1 2.71645 2.71645 0.00290082 
3 1 2.71645 0.00290082 2.71645 
4 1 0.00290082 2.71645 2.71645 
5 1 1.35968 1.35968 1.35968 
6 1 4.07323 4.07323 1.35968 
7 1 4.07323 1.35968 4.07323 
8 1 1.35968 4.07323 4.07323 
9 1 0.00290082 0.00290082 5.43 
10 1 2.71645 2.71645 5.43 
11 1 2.71645 0.00290082 8.14355 
12 1 0.00290082 2.71645 8.14355 
13 1 1.35968 1.35968 6.78677 
14 1 4.07323 4.07323 6.78677 
15 1 4.07323 1.35968 9.50032 
16 1 1.35968 4.07323 9.50032 
17 1 0.00290082 5.43 0.00290082 
18 1 2.71645 8.14355 0.00290082 
19 1 2.71645 5.43 2.71645 
20 1 0.00290082 8.14355 2.71645 
21 1 1.35968 6.78677 1.35968 
22 1 4.07323 9.50032 1.35968 
23 1 4.07323 6.78677 4.07323 
24 1 1.35968 9.50032 4.07323 
25 1 0.00290082 5.43 5.43 
26 1 2.71645 8.14355 5.43 
27 1 2.71645 5.43 8.14355 
28 1 0.00290082 8.14355 8.14355 
29 1 1.35968 6.78677 6.78677 
30 1 4.07323 9.50032 6.78677 
31 1 4.07323 6.78677 9.50032 
32 1 1.35968 9.50032 9.50032 
33 1 5.43 0.00290082 0.00290082 
34 1 8.14355 2.71645 0.00290082 
35 1 8.14355 0.00290082 2.71645 
36 1 5.43 2.71645 2.71645 
37 1 6.78677 1.35968 1.35968 
38 1 9.50032 4.07323 1.35968 
39 1 9.50032 1.35968 4.07323 
40 1 6.78677 4.07323 4.07323 
41 1 5.43 0.00290082 5.43 
42 1 8.14355 2.71645 5.43 
43 1 8.14355 0.00290082 8.14355 
44 1 5.43 2.71645 8.14355 
45 1 6.78677 1.35968 6.78677 
46 1 9.50032 4.07323 6.78677 
47 1 9.50032 1.35968 9.50032 
48 1 6.78677 4.07323 9.50032 
49 1 5.43 5.43 0.00290082 
50 1 8.14355 8.14355 0.00290082 
51 1 8.14355 5.43 2.71645 
52 1 5.43 8.14355 2.71645 
53 1 6.78677 6.78677 1.35968 
54 1 9.50032 9.50032 1.35968 
55 1 9.50032 6.78677 4.07323 
56 1 6.78677 9.50032 4.07323 
57 1 5.43 5.43 5.43 
58 1 8.14355 8.14355 5.43 
59 1 8.14355 5.43 8.14355 
60 1 5.43 8.14355 8.14355 
61 1 6.78677 6.78677 6.78677 
62 1 9.50032 9.50032 6.78677 
63 1 9.50032 6.78677 9.50032 
64 1 6.78677 9.50032 9.50032 
ITEM: TIMESTEP
2
ITEM: NUMBER OF ATOMS
64
ITEM: BOX BOUNDS xy xz yz pp pp pp
0.00290751 10.8571 0
0.00290751 10.8571 0
0.00290751 10.8571 0
ITEM: ATOMS id type x y z 
1 1 0.00290751 0.00290751 0.00290751 
2 1 2.71645 2.71645 0.00290751 
3 1 2.71645 0.00290751 2.71645 
4 1 0.00290751 2.71645 2.71645 
5 1 1.35968 1.35968 1.35968 
6 1 4.07323 4.07323 1.35968 
7 1 4.07323 1.35968 4.07323 
8 1 1.35968 4.07323 4.07323 
9 1 0.00290751 0.00290751 5.43 
10 1 2.71645 2.71645 5.43 
11 1 2.71645 0.00290751 8.14355 
12 1 0.00290751 2.71645 8.14355 
13 1 1.35968 1.35968 6.78677 
14 1 4.07323 4.07323 6.78677 
15 1 4.07323 1.35968 9.50032 
16 1 1.35968 4.07323 9.50032 
17 1 0.00290751 5.43 0.00290751 
18 1 2.71645 8.14355 0.00290751 
19 1 2.71645 5.43 2.71645 
20 1 0.00290751 8.14355 2.71645 
21 1 1.35968 6.78677 1.35968 
22 1 4.07323 9.50032 1.35968 
23 1 4.07323 6.78677 4.07323 
24 1 1.35968 9.50032 4.07323 
25 1 0.00290751 5.43 5.43 
26 1 2.71645 8.14355 5.43 
27 1 2.71645 5.43 8.14355 
28 1 0.00290751 8.14355 8.14355 
29 1 1.35968 6.78677 6.78677 
30 1 4.07323 9.50032 6.78677 
31 1 4.07323 6.78677 9.50032 
32 1 1.35968 9.50032 9.50032 
33 1 5.43 0.00290751 0.00290751 
34 1 8.14355 2.71645 0.00290751 
35 1 8.14355 0.00290751 2.71645 
36 1 5.43 2.71645 2.71645 
37 1 6.78677 1.35968 1.35968 
38 1 9.50032 4.07323 1.35968 
39 1 9.50032 1.35968 4.07323 
40 1 6.78677 4.07323 4.07323 
41 1 5.43 0.00290751 5.43 
42 1 8.14355 2.71645 5.43 
43 1 8.14355 0.00290751 8.14355 
44 1 5.43 2.71645 8.14355 
45 1 6.78677 1.35968 6.78677 
46 1 9.50032 4.07323 6.78677 
47 1 9.50032 1.35968 9.50032 
48 1 6.78677 4.07323 9.50032 
49 1 5.43 5.43 0.00290751 
50 1 8.14355 8.14355 0.00290751 
51 1 8.14355 5.43 2.71645 
52 1 5.43 8.14355 2.71645 
53 1 6.78677 6.78677 1.35968 
54 1 9.50032 9.50032 1.35968 
55 1 9.50032 6.78677 4.07323 
56 1 6.78677 9.50032 4.07323 
57 1 5.43 5.43 5.43 
58 1 8.14355 8.14355 5.43 
59 1 8.14355 5.43 8.14355 
60 1 5.43 8.14355 8.14355 
61 1 6.78677 6.78677 6.78677 
62 1 9.50032 9.50032 6.78677 
63 1 9.50032 6.78677 9.50032 
64 1 6.78677 9.50032 9.50032 
ITEM: TIMESTEP
3
ITEM: NUMBER OF ATOMS
64
ITEM: BOX BOUNDS xy xz yz pp pp pp
0.00290754 10.8571 0
0.00290754 10.8571 0
0.00290754 10.8571 0
ITEM: ATOMS id type x y z 
1 1 0.00290754 0.00290754 0.00290754 
2 1 2.71645 2.71645 0.00290754 
3 1 2.71645 0.00290754 2.71645 
4 1 0.00290754 2.71645 2.71645 
5 1 1.35968 1.35968 1.35968 
6 1 4.07323 4.07323 1.35968 
7 1 4.07323 1.35968 4.07323 
8 1 1.35968 4.07323 4.07323 
9 1 0.00290754 0.00290754 5.43 
10 1 2.71645 2.71645 5.43 
11 1 2.71645 0.00290754 8.14355 
12 1 0.00290754 2.71645 8.14355 
13 1 1.35968 1.35968 6.78677 
14 1 4.07323 4.07323 6.78677 
15 1 4.07323 1.35968 9.50032 
16 1 1.35968 4.07323 9.50032 
17 1 0.00290754 5.43 0.00290754 
18 1 2.71645 8.14355 0.00290754 
19 1 2.71645 5.43 2.71645 
20 1 0.00290754 8.14355 2.71645 
21 1 1.35968 6.78677 1.35968 
22 1 4.07323 9.50032 1.35968 
23 1 4.07323 6.78677 4.07323 
24 1 1.35968 9.50032 4.07323 
25 1 0.00290754 5.43 5.43 
26 1 2.71645 8.14355 5.43 
27 1 2.71645 5.43 8.14355 
28 1 0.00290754 8.14355 8.14355 
29 1 1.35968 6.78677 6.78677 
30 1 4.07323 9.50032 6.78677 
31 1 4.07323 6.78677 9.50032 
32 1 1.35968 9.50032 9.50032 
33 1 5.43 0.00290754 0.00290754 
34 1 8.14355 2.71645 0.00290754 
35 1 8.14355 0.00290754 2.71645 
36 1 5.43 2.71645 2.71645 
37 1 6.78677 1.35968 1.35968 
38 1 9.50032 4.07323 1.35968 
39 1 9.50032 1.35968 4.07323 
40 1 6.78677 4.07323 4.07323 
41 1 5.43 0.00290754 5.43 
42 1 8.14355 2.71645 5.43 
43 1 8.14355 0.00290754 8.14355 
44 1 5.43 2.71645 8.14355 
45 1 6.78677 1.35968 6.78677 
46 1 9.50032 4.07323 6.78677 
47 1 9.50032 1.35968 9.50032 
48 1 6.78677 4.07323 9.50032 
49 1 5.43 5.43 0.00290754 
50 1 8.14355 8.14355 0.00290754 
51 1 8.14355 5.43 2.71645 
52 1 5.43 8.14355 2.71645 
53 1 6.78677 6.78677 1.35968 
54 1 9.50032 9.50032 1.35968 
55 1 9.50032 6.78677 4.07323 
56 1 6.78677 9.50032 4.07323 
57 1 5.43 5.43 5.43 
58 1 8.14355 8.14355 5.43 
59 1 8.14355 5.43 8.14355 
60 1 5.43 8.14355 8.14355 
61 1 6.78677 6.78677 6.78677 
62 1 9.50032 9.50032 6.78677 
63 1 9.50032 6.78677 9.50032 
64 1 6.78677 9.50032 9.50032 
ITEM: TIMESTEP
4
ITEM: NUMBER OF ATOMS
64
ITEM: BOX BOUNDS xy xz yz pp pp pp
0.00290754 10.8571 0
0.00290754 10.8571 0
0.00290754 10.8571 0
ITEM: ATOMS id type x y z 
1 1 0.00290754 0.00290754 0.00290754 
2 1 2.71645 2.71645 0.00290754 
3 1 2.71645 0.00290754 2.71645 
4 1 0.00290754 2.71645 2.71645 
5 1 1.35968 1.35968 1.35968 
6 1 4.07323 4.07323 1.35968 
7 1 4.07323 1.35968 4.07323 
8 1 1.35968 4.07323 4.07323 
9 1 0.00290754 0.00290754 5.43 
10 1 2.71645 2.71645 5.43 
11 1 2.71645 0.00290754 8.14355 
12 1 0.00290754 2.71645 8.14355 
13 1 1.35968 1.35968 6.78677 
14 1 4.07323 4.07323 6.78677 
15 1 4.07323 1.35968 9.50032 
16 1 1.35968 4.07323 9.50032 
17 1 0.00290754 5.43 0.00290754 
18 1 2.71645 8.14355 0.00290754 
19 1 2.71645 5.43 2.71645 
20 1 0.00290754 8.14355 2.71645 
21 1 1.35968 6.78677 1.35968 
22 1 4.07323 9.50032 1.35968 
23 1 4.07323 6.78677 4.07323 
24 1 1.35968 9.50032 4.07323 
25 1 0.00290754 5.43 5.43 
26 1 2.71645 8.14355 5.43 
27 1 2.71645 5.43 8.14355 
28 1 0.00290754 8.14355 8.14355 
29 1 1.35968 6.78677 6.78677 
30 1 4.07323 9.50032 6.78677 
31 1 4.07323 6.78677 9.50032 
32 1 1.35968 9.50032 9.50032 
33 1 5.43 0.00290754 0.00290754 
34 1 8.14355 2.71645 0.00290754 
35 1 8.14355 0.00290754 2.71645 
36 1 5.43 2.71645 2.71645 
37 1 6.78677 1.35968 1.35968 
38 1 9.50032 4.07323 1.35968 
39 1 9.50032 1.35968 4.07323 
40 1 6.78677 4.07323 4.07323 
41 1 5.43 0.00290754 5.43 
42 1 8.14355 2.71645 5.43 
43 1 8.14355 0.00290754 8.14355 
44 1 5.43 2.71645 8.14355 
45 1 6.78677 1.35968 6.78677 
46 1 9.50032 4.07323 6.78677 
47 1 9.50032 1.35968 9.50032 
48 1 6.78677 4.07323 9.50032 
49 1 5.43 5.43 0.00290754 
50 1 8.14355 8.14355 0.00290754 
51 1 8.14355 5.43 2.71645 
52 1 5.43 8.14355 2.71645 
53 1 6.78677 6.78677 1.35968 
54 1 9.50032 9.50032 1.35968 
55 1 9.50032 6.78677 4.07323 
56 1 6.78677 9.50032 4.07323 
57 1 5.43 5.43 5.43 
58 1 8.14355 8.14355 5.43 
59 1 8.14355 5.43 8.14355 
60 1 5.43 8.14355 8.14355 
61 1 6.78677 6.78677 6.78677 
62 1 9.50032 9.50032 6.78677 
63 1 9.50032 6.78677 9.50032 
64 1 6.78677 9.50032 9.50032 
ITEM: TIMESTEP
5
ITEM: NUMBER OF ATOMS
64
ITEM: BOX BOUNDS xy xz yz pp pp pp
0.00290754 10.8571 0
0.00290754 10.8571 0
0.00290754 10.8571 0
ITEM: ATOMS id type x y z 
1 1 0.00290754 0.00290754 0.00290754 
2 1 2.71645 2.71645 0.00290754 
3 1 2.71645 0.00290754 2.71645 
4 1 0.00290754 2.71645 2.71645 
5 1 1.35968 1.35968 1.35968 
6 1 4.07323 4.07323 1.35968 
7 1 4.07323 1.35968 4.07323 
8 1 1.35968 4.07323 4.07323 
9 1 0.00290754 0.00290754 5.43 
10 1 2.71645 2.71645 5.43 
11 1 2.71645 0.00290754 8.14355 
12 1 0.00290754 2.71645 8.14355 
13 1 1.35968 1.35968 6.78677 
14 1 4.07323 4.07323 6.78677 
15 1 4.07323 1.35968 9.50032 
16 1 1.35968 4.07323 9.50032 
17 1 0.00290754 5.43 0.00290754 
18 1 2.71645 8.14355 0.00290754 
19 1 2.71645 5.43 2.71645 
20 1 0.00290754 8.14355 2.71645 
21 1 1.35968 6.78677 1.35968 
22 1 4.07323 9.50032 1.35968 
23 1 4.07323 6.78677 4.07323 
24 1 1.35968 9.50032 4.07323 
25 1 0.00290754 5.43 5.43 
26 1 2.71645 8.14355 5.43 
27 1 2.71645 5.43 8.14355 
28 1 0.00290754 8.14355 8.14355 
29 1 1.35968 6.78677 6.78677 
30 1 4.07323 9.50032 6.78677 
31 1 4.07323 6.78677 9.50032 
32 1 1.35968 9.50032 9.50032 
33 1 5.43 0.00290754 0.00290754 
34 1 8.14355 2.71645 0.00290754 
35 1 8.14355 0.00290754 2.71645 
36 1 5.43 2.71645 2.71645 
37 1 6.78677 1.35968 1.35968 
38 1 9.50032 4.07323 1.35968 
39 1 9.50032 1.35968 4.07323 
40 1 6.78677 4.07323 4.07323 
41 1 5.43 0.00290754 5.43 
42 1 8.14355 2.71645 5.43 
43 1 8.14355 0.00290754 8.14355 
44 1 5.43 2.71645 8.14355 
45 1 6.78677 1.35968 6.78677 
46 1 9.50032 4.07323 6.78677 
47 1 9.50032 1.35968 9.50032 
48 1 6.78677 4.07323 9.50032 
49 1 5.43 5.43 0.00290754 
50 1 8.14355 8.14355 0.00290754 
51 1 8.14355 5.43 2.71645 
52 1 5.43 8.14355 2.71645 
53 1 6.78677 6.78677 1.35968 
54 1 9.50032 9.50032 1.35968 
55 1 9.50032 6.78677 4.07323 
56 1 6.78677 9.50032 4.07323 
57 1 5.43 5.43 5.43 
58 1 8.14355 8.14355 5.43 
59 1 8.14355 5.43 8.14355 
60 1 5.43 8.14355 8.14355 
61 1 6.78677 6.78677 6.78677 
62 1 9.50032 9.50032 6.78677 
63 1 9.50032 6.78677 9.50032 
64 1 6.78677 9.50032 9.50032 
ITEM: TIMESTEP
6
ITEM: NUMBER OF ATOMS
64
ITEM: BOX BOUNDS xy xz yz pp pp pp
0.00290754 10.8571 0
0.00290754 10.8571 0
0.00290754 10.8571 0
ITEM: ATOMS id type x y z 
1 1 0.00290754 0.00290754 0.00290754 
2 1 2.71645 2.71645 0.00290754 
3 1 2.71645 0.00290754 2.71645 
4 1 0.00290754 2.71645 2.71645 
5 1 1.35968 1.35968 1.35968 
6 1 4.07323 4.07323 1.35968 
7 1 4.07323 1.35968 4.07323 
8 1 1.35968 4.07323 4.07323 
9 1 0.00290754 0.00290754 5.43 
10 1 2.71645 2.71645 5.43 
11 1 2.71645 0.00290754 8.14355 
12 1 0.00290754 2.71645 8.14355 
13 1 1.35968 1.35968 6.78677 
14 1 4.07323 4.07323 6.78677 
15 1 4.07323 1.35968 9.50032 
16 1 1.35968 4.07323 9.50032 
17 1 0.00290754 5.43 0.00290754 
18 1 2.71645 8.14355 0.00290754 
19 1 2.71645 5.43 2.71645 
20 1 0.00290754 8.14355 2.71645 
21 1 1.35968 6.78677 1.35968 
22 1 4.07323 9.50032 1.35968 
23 1 4.07323 6.78677 4.07323 
24 1 1.35968 9.50032 4.07323 
25 1 0.00290754 5.43 5.43 
26 1 2.71645 8.14355 5.43 
27 1 2.71645 5.43 8.14355 
28 1 0.00290754 8.14355 8.14355 
29 1 1.35968 6.78677 6.78677 
30 1 4.07323 9.50032 6.78677 
31 1 4.07323 6.78677 9.50032 
32 1 1.35968 9.50032 9.50032 
33 1 5.43 0.00290754 0.00290754 
34 1 8.14355 2.71645 0.00290754 
35 1 8.14355 0.00290754 2.71645 
36 1 5.43 2.71645 2.71645 
37 1 6.78677 1.35968 1.35968 
38 1 9.50032 4.07323 1.35968 
39 1 9.50032 1.35968 4.07323 
40 1 6.78677 4.07323 4.07323 
41 1 5.43 0.00290754 5.43 
42 1 8.14355 2.71645 5.43 
43 1 8.14355 0.00290754 8.14355 
44 1 5.43 2.71645 8.14355 
45 1 6.78677 1.35968 6.78677 
46 1 9.50032 4.07323 6.78677 
47 1 9.50032 1.35968 9.50032 
48 1 6.78677 4.07323 9.50032 
49 1 5.43 5.43 0.00290754 
50 1 8.14355 8.14355 0.00290754 
51 1 8.14355 5.43 2.71645 
52 1 5.43 8.14355 2.71645 
53 1 6.78677 6.78677 1.35968 
54 1 9.50032 9.50032 1.35968 
55 1 9.50032 6.78677 4.07323 
56 1 6.78677 9.50032 4.07323 
57 1 5.43 5.43 5.43 
58 1 8.14355 8.14355 5.43 
59 1 8.14355 5.43 8.14355 
60 1 5.43 8.14355 8.14355 
61 1 6.78677 6.78677 6.78677 
62 1 9.50032 9.50032 6.78677 
63 1 9.50032 6.78677 9.50032 
64 1 6.78677 9.50032 9.50032 
