LAMMPS (10 Feb 2015)
units           metal
boundary        p p p
atom_style      atomic
read_data       datafile
  triclinic box = (0 0 0) to (10.86 10.86 10.86) with tilt (0 0 0)
  1 by 1 by 1 MPI processor grid
  reading atoms ...
  64 atoms
mass * 1.0
pair_style meam
pair_coeff      * *  /Users/masud/MD/potentials/library_Si.meam Si /Users/masud/MD/potentials/Si.meam  Si
neighbor        2.0 bin
neigh_modify    delay 10
dump            1 all custom 1 dump id type x y z
log             log
