 
 720 atoms 
 
 1 atom types
 0.00000000000000000000 14.48000000000000042633 xlo xhi
 0.00000000000000000000 10.85999999999999943157 ylo yhi
 0.00000000000000000000 74.29999999999999715783 zlo zhi
 0.00000000000000000000 0.00000000000000000000 0.00000000000000000000 xy xz yz
 
 Atoms 
 
	1	1	0.00000000000000000000	0.00000000000000000000	0.00000000000000000000
	2	1	0.00000000000000000000	1.81000000000000005329	1.81000000000000005329
	3	1	1.81000000000000005329	0.00000000000000000000	1.81000000000000005329
	4	1	1.81000000000000005329	1.81000000000000005329	0.00000000000000000000
	5	1	0.00000000000000000000	0.00000000000000000000	3.62000000000000010658
	6	1	0.00000000000000000000	1.81000000000000005329	5.42999999999999971578
	7	1	1.81000000000000005329	0.00000000000000000000	5.42999999999999971578
	8	1	1.81000000000000005329	1.81000000000000005329	3.62000000000000010658
	9	1	0.00000000000000000000	0.00000000000000000000	7.24000000000000021316
qqq;wq



	10	1	0.00000000000000000000	1.81000000000000005329	9.05000000000000071054
	11	1	1.81000000000000005329	0.00000000000000000000	9.05000000000000071054
	12	1	1.81000000000000005329	1.81000000000000005329	7.24000000000000021316
	13	1	0.00000000000000000000	0.00000000000000000000	10.85999999999999943157
	14	1	0.00000000000000000000	1.81000000000000005329	12.66999999999999992895
	15	1	1.81000000000000005329	0.00000000000000000000	12.66999999999999992895
	16	1	1.81000000000000005329	1.81000000000000005329	10.85999999999999943157
	17	1	0.00000000000000000000	0.00000000000000000000	14.48000000000000042633
	18	1	0.00000000000000000000	1.81000000000000005329	16.28999999999999914735
	19	1	1.81000000000000005329	0.00000000000000000000	16.28999999999999914735
	20	1	1.81000000000000005329	1.81000000000000005329	14.48000000000000042633
	21	1	0.00000000000000000000	0.00000000000000000000	18.10000000000000142109
	22	1	0.00000000000000000000	1.81000000000000005329	19.91000000000000014211
	23	1	1.81000000000000005329	0.00000000000000000000	19.91000000000000014211
	24	1	1.81000000000000005329	1.81000000000000005329	18.10000000000000142109
	25	1	0.00000000000000000000	0.00000000000000000000	21.71999999999999886313
	26	1	0.00000000000000000000	1.81000000000000005329	23.53000000000000113687
	27	1	1.81000000000000005329	0.00000000000000000000	23.53000000000000113687
	28	1	1.81000000000000005329	1.81000000000000005329	21.71999999999999886313
	29	1	0.00000000000000000000	0.00000000000000000000	25.33999999999999985789
	30	1	0.00000000000000000000	1.81000000000000005329	27.15000000000000213163
	31	1	1.81000000000000005329	0.00000000000000000000	27.15000000000000213163
	32	1	1.81000000000000005329	1.81000000000000005329	25.33999999999999985789
	33	1	0.00000000000000000000	0.00000000000000000000	28.96000000000000085265
	34	1	0.00000000000000000000	1.81000000000000005329	30.76999999999999957367
	35	1	1.81000000000000005329	0.00000000000000000000	30.76999999999999957367
	36	1	1.81000000000000005329	1.81000000000000005329	28.96000000000000085265
	37	1	0.00000000000000000000	0.00000000000000000000	32.57999999999999829470
	38	1	0.00000000000000000000	1.81000000000000005329	34.39000000000000056843
	39	1	1.81000000000000005329	0.00000000000000000000	34.39000000000000056843
	40	1	1.81000000000000005329	1.81000000000000005329	32.57999999999999829470
	41	1	0.00000000000000000000	0.00000000000000000000	36.20000000000000284217
	42	1	0.00000000000000000000	1.81000000000000005329	38.00999999999999801048
	43	1	1.81000000000000005329	0.00000000000000000000	38.00999999999999801048
	44	1	1.81000000000000005329	1.81000000000000005329	36.20000000000000284217
	45	1	0.00000000000000000000	0.00000000000000000000	39.82000000000000028422
	46	1	0.00000000000000000000	1.81000000000000005329	41.63000000000000255795
	47	1	1.81000000000000005329	0.00000000000000000000	41.63000000000000255795
	48	1	1.81000000000000005329	1.81000000000000005329	39.82000000000000028422
	49	1	0.00000000000000000000	0.00000000000000000000	43.43999999999999772626
	50	1	0.00000000000000000000	1.81000000000000005329	45.25000000000000000000
	51	1	1.81000000000000005329	0.00000000000000000000	45.25000000000000000000
	52	1	1.81000000000000005329	1.81000000000000005329	43.43999999999999772626
	53	1	0.00000000000000000000	0.00000000000000000000	47.06000000000000227374
	54	1	0.00000000000000000000	1.81000000000000005329	48.87000000000000454747
	55	1	1.81000000000000005329	0.00000000000000000000	48.87000000000000454747
	56	1	1.81000000000000005329	1.81000000000000005329	47.06000000000000227374
	57	1	0.00000000000000000000	0.00000000000000000000	50.67999999999999971578
	58	1	0.00000000000000000000	1.81000000000000005329	52.49000000000000198952
	59	1	1.81000000000000005329	0.00000000000000000000	52.49000000000000198952
	60	1	1.81000000000000005329	1.81000000000000005329	50.67999999999999971578
	61	1	0.00000000000000000000	3.62000000000000010658	0.00000000000000000000
	62	1	0.00000000000000000000	5.42999999999999971578	1.81000000000000005329
	63	1	1.81000000000000005329	3.62000000000000010658	1.81000000000000005329
	64	1	1.81000000000000005329	5.42999999999999971578	0.00000000000000000000
	65	1	0.00000000000000000000	3.62000000000000010658	3.62000000000000010658
	66	1	0.00000000000000000000	5.42999999999999971578	5.42999999999999971578
	67	1	1.81000000000000005329	3.62000000000000010658	5.42999999999999971578
	68	1	1.81000000000000005329	5.42999999999999971578	3.62000000000000010658
	69	1	0.00000000000000000000	3.62000000000000010658	7.24000000000000021316
	70	1	0.00000000000000000000	5.42999999999999971578	9.05000000000000071054
	71	1	1.81000000000000005329	3.62000000000000010658	9.05000000000000071054
	72	1	1.81000000000000005329	5.42999999999999971578	7.24000000000000021316
	73	1	0.00000000000000000000	3.62000000000000010658	10.85999999999999943157
	74	1	0.00000000000000000000	5.42999999999999971578	12.66999999999999992895
	75	1	1.81000000000000005329	3.62000000000000010658	12.66999999999999992895
	76	1	1.81000000000000005329	5.42999999999999971578	10.85999999999999943157
	77	1	0.00000000000000000000	3.62000000000000010658	14.48000000000000042633
	78	1	0.00000000000000000000	5.42999999999999971578	16.28999999999999914735
	79	1	1.81000000000000005329	3.62000000000000010658	16.28999999999999914735
	80	1	1.81000000000000005329	5.42999999999999971578	14.48000000000000042633
	81	1	0.00000000000000000000	3.62000000000000010658	18.10000000000000142109
	82	1	0.00000000000000000000	5.42999999999999971578	19.91000000000000014211
	83	1	1.81000000000000005329	3.62000000000000010658	19.91000000000000014211
	84	1	1.81000000000000005329	5.42999999999999971578	18.10000000000000142109
	85	1	0.00000000000000000000	3.62000000000000010658	21.71999999999999886313
	86	1	0.00000000000000000000	5.42999999999999971578	23.53000000000000113687
	87	1	1.81000000000000005329	3.62000000000000010658	23.53000000000000113687
	88	1	1.81000000000000005329	5.42999999999999971578	21.71999999999999886313
	89	1	0.00000000000000000000	3.62000000000000010658	25.33999999999999985789
	90	1	0.00000000000000000000	5.42999999999999971578	27.15000000000000213163
	91	1	1.81000000000000005329	3.62000000000000010658	27.15000000000000213163
	92	1	1.81000000000000005329	5.42999999999999971578	25.33999999999999985789
	93	1	0.00000000000000000000	3.62000000000000010658	28.96000000000000085265
	94	1	0.00000000000000000000	5.42999999999999971578	30.76999999999999957367
	95	1	1.81000000000000005329	3.62000000000000010658	30.76999999999999957367
	96	1	1.81000000000000005329	5.42999999999999971578	28.96000000000000085265
	97	1	0.00000000000000000000	3.62000000000000010658	32.57999999999999829470
	98	1	0.00000000000000000000	5.42999999999999971578	34.39000000000000056843
	99	1	1.81000000000000005329	3.62000000000000010658	34.39000000000000056843
	100	1	1.81000000000000005329	5.42999999999999971578	32.57999999999999829470
	101	1	0.00000000000000000000	3.62000000000000010658	36.20000000000000284217
	102	1	0.00000000000000000000	5.42999999999999971578	38.00999999999999801048
	103	1	1.81000000000000005329	3.62000000000000010658	38.00999999999999801048
	104	1	1.81000000000000005329	5.42999999999999971578	36.20000000000000284217
	105	1	0.00000000000000000000	3.62000000000000010658	39.82000000000000028422
	106	1	0.00000000000000000000	5.42999999999999971578	41.63000000000000255795
	107	1	1.81000000000000005329	3.62000000000000010658	41.63000000000000255795
	108	1	1.81000000000000005329	5.42999999999999971578	39.82000000000000028422
	109	1	0.00000000000000000000	3.62000000000000010658	43.43999999999999772626
	110	1	0.00000000000000000000	5.42999999999999971578	45.25000000000000000000
	111	1	1.81000000000000005329	3.62000000000000010658	45.25000000000000000000
	112	1	1.81000000000000005329	5.42999999999999971578	43.43999999999999772626
	113	1	0.00000000000000000000	3.62000000000000010658	47.06000000000000227374
	114	1	0.00000000000000000000	5.42999999999999971578	48.87000000000000454747
	115	1	1.81000000000000005329	3.62000000000000010658	48.87000000000000454747
	116	1	1.81000000000000005329	5.42999999999999971578	47.06000000000000227374
	117	1	0.00000000000000000000	3.62000000000000010658	50.67999999999999971578
	118	1	0.00000000000000000000	5.42999999999999971578	52.49000000000000198952
	119	1	1.81000000000000005329	3.62000000000000010658	52.49000000000000198952
	120	1	1.81000000000000005329	5.42999999999999971578	50.67999999999999971578
	121	1	0.00000000000000000000	7.24000000000000021316	0.00000000000000000000
	122	1	0.00000000000000000000	9.05000000000000071054	1.81000000000000005329
	123	1	1.81000000000000005329	7.24000000000000021316	1.81000000000000005329
	124	1	1.81000000000000005329	9.05000000000000071054	0.00000000000000000000
	125	1	0.00000000000000000000	7.24000000000000021316	3.62000000000000010658
	126	1	0.00000000000000000000	9.05000000000000071054	5.42999999999999971578
	127	1	1.81000000000000005329	7.24000000000000021316	5.42999999999999971578
	128	1	1.81000000000000005329	9.05000000000000071054	3.62000000000000010658
	129	1	0.00000000000000000000	7.24000000000000021316	7.24000000000000021316
	130	1	0.00000000000000000000	9.05000000000000071054	9.05000000000000071054
	131	1	1.81000000000000005329	7.24000000000000021316	9.05000000000000071054
	132	1	1.81000000000000005329	9.05000000000000071054	7.24000000000000021316
	133	1	0.00000000000000000000	7.24000000000000021316	10.85999999999999943157
	134	1	0.00000000000000000000	9.05000000000000071054	12.66999999999999992895
	135	1	1.81000000000000005329	7.24000000000000021316	12.66999999999999992895
	136	1	1.81000000000000005329	9.05000000000000071054	10.85999999999999943157
	137	1	0.00000000000000000000	7.24000000000000021316	14.48000000000000042633
	138	1	0.00000000000000000000	9.05000000000000071054	16.28999999999999914735
	139	1	1.81000000000000005329	7.24000000000000021316	16.28999999999999914735
	140	1	1.81000000000000005329	9.05000000000000071054	14.48000000000000042633
	141	1	0.00000000000000000000	7.24000000000000021316	18.10000000000000142109
	142	1	0.00000000000000000000	9.05000000000000071054	19.91000000000000014211
	143	1	1.81000000000000005329	7.24000000000000021316	19.91000000000000014211
	144	1	1.81000000000000005329	9.05000000000000071054	18.10000000000000142109
	145	1	0.00000000000000000000	7.24000000000000021316	21.71999999999999886313
	146	1	0.00000000000000000000	9.05000000000000071054	23.53000000000000113687
	147	1	1.81000000000000005329	7.24000000000000021316	23.53000000000000113687
	148	1	1.81000000000000005329	9.05000000000000071054	21.71999999999999886313
	149	1	0.00000000000000000000	7.24000000000000021316	25.33999999999999985789
	150	1	0.00000000000000000000	9.05000000000000071054	27.15000000000000213163
	151	1	1.81000000000000005329	7.24000000000000021316	27.15000000000000213163
	152	1	1.81000000000000005329	9.05000000000000071054	25.33999999999999985789
	153	1	0.00000000000000000000	7.24000000000000021316	28.96000000000000085265
	154	1	0.00000000000000000000	9.05000000000000071054	30.76999999999999957367
	155	1	1.81000000000000005329	7.24000000000000021316	30.76999999999999957367
	156	1	1.81000000000000005329	9.05000000000000071054	28.96000000000000085265
	157	1	0.00000000000000000000	7.24000000000000021316	32.57999999999999829470
	158	1	0.00000000000000000000	9.05000000000000071054	34.39000000000000056843
	159	1	1.81000000000000005329	7.24000000000000021316	34.39000000000000056843
	160	1	1.81000000000000005329	9.05000000000000071054	32.57999999999999829470
	161	1	0.00000000000000000000	7.24000000000000021316	36.20000000000000284217
	162	1	0.00000000000000000000	9.05000000000000071054	38.00999999999999801048
	163	1	1.81000000000000005329	7.24000000000000021316	38.00999999999999801048
	164	1	1.81000000000000005329	9.05000000000000071054	36.20000000000000284217
	165	1	0.00000000000000000000	7.24000000000000021316	39.82000000000000028422
	166	1	0.00000000000000000000	9.05000000000000071054	41.63000000000000255795
	167	1	1.81000000000000005329	7.24000000000000021316	41.63000000000000255795
	168	1	1.81000000000000005329	9.05000000000000071054	39.82000000000000028422
	169	1	0.00000000000000000000	7.24000000000000021316	43.43999999999999772626
	170	1	0.00000000000000000000	9.05000000000000071054	45.25000000000000000000
	171	1	1.81000000000000005329	7.24000000000000021316	45.25000000000000000000
	172	1	1.81000000000000005329	9.05000000000000071054	43.43999999999999772626
	173	1	0.00000000000000000000	7.24000000000000021316	47.06000000000000227374
	174	1	0.00000000000000000000	9.05000000000000071054	48.87000000000000454747
	175	1	1.81000000000000005329	7.24000000000000021316	48.87000000000000454747
	176	1	1.81000000000000005329	9.05000000000000071054	47.06000000000000227374
	177	1	0.00000000000000000000	7.24000000000000021316	50.67999999999999971578
	178	1	0.00000000000000000000	9.05000000000000071054	52.49000000000000198952
	179	1	1.81000000000000005329	7.24000000000000021316	52.49000000000000198952
	180	1	1.81000000000000005329	9.05000000000000071054	50.67999999999999971578
	181	1	3.62000000000000010658	0.00000000000000000000	0.00000000000000000000
	182	1	3.62000000000000010658	1.81000000000000005329	1.81000000000000005329
	183	1	5.42999999999999971578	0.00000000000000000000	1.81000000000000005329
	184	1	5.42999999999999971578	1.81000000000000005329	0.00000000000000000000
	185	1	3.62000000000000010658	0.00000000000000000000	3.62000000000000010658
	186	1	3.62000000000000010658	1.81000000000000005329	5.42999999999999971578
	187	1	5.42999999999999971578	0.00000000000000000000	5.42999999999999971578
	188	1	5.42999999999999971578	1.81000000000000005329	3.62000000000000010658
	189	1	3.62000000000000010658	0.00000000000000000000	7.24000000000000021316
	190	1	3.62000000000000010658	1.81000000000000005329	9.05000000000000071054
	191	1	5.42999999999999971578	0.00000000000000000000	9.05000000000000071054
	192	1	5.42999999999999971578	1.81000000000000005329	7.24000000000000021316
	193	1	3.62000000000000010658	0.00000000000000000000	10.85999999999999943157
	194	1	3.62000000000000010658	1.81000000000000005329	12.66999999999999992895
	195	1	5.42999999999999971578	0.00000000000000000000	12.66999999999999992895
	196	1	5.42999999999999971578	1.81000000000000005329	10.85999999999999943157
	197	1	3.62000000000000010658	0.00000000000000000000	14.48000000000000042633
	198	1	3.62000000000000010658	1.81000000000000005329	16.28999999999999914735
	199	1	5.42999999999999971578	0.00000000000000000000	16.28999999999999914735
	200	1	5.42999999999999971578	1.81000000000000005329	14.48000000000000042633
	201	1	3.62000000000000010658	0.00000000000000000000	18.10000000000000142109
	202	1	3.62000000000000010658	1.81000000000000005329	19.91000000000000014211
	203	1	5.42999999999999971578	0.00000000000000000000	19.91000000000000014211
	204	1	5.42999999999999971578	1.81000000000000005329	18.10000000000000142109
	205	1	3.62000000000000010658	0.00000000000000000000	21.71999999999999886313
	206	1	3.62000000000000010658	1.81000000000000005329	23.53000000000000113687
	207	1	5.42999999999999971578	0.00000000000000000000	23.53000000000000113687
	208	1	5.42999999999999971578	1.81000000000000005329	21.71999999999999886313
	209	1	3.62000000000000010658	0.00000000000000000000	25.33999999999999985789
	210	1	3.62000000000000010658	1.81000000000000005329	27.15000000000000213163
	211	1	5.42999999999999971578	0.00000000000000000000	27.15000000000000213163
	212	1	5.42999999999999971578	1.81000000000000005329	25.33999999999999985789
	213	1	3.62000000000000010658	0.00000000000000000000	28.96000000000000085265
	214	1	3.62000000000000010658	1.81000000000000005329	30.76999999999999957367
	215	1	5.42999999999999971578	0.00000000000000000000	30.76999999999999957367
	216	1	5.42999999999999971578	1.81000000000000005329	28.96000000000000085265
	217	1	3.62000000000000010658	0.00000000000000000000	32.57999999999999829470
	218	1	3.62000000000000010658	1.81000000000000005329	34.39000000000000056843
	219	1	5.42999999999999971578	0.00000000000000000000	34.39000000000000056843
	220	1	5.42999999999999971578	1.81000000000000005329	32.57999999999999829470
	221	1	3.62000000000000010658	0.00000000000000000000	36.20000000000000284217
	222	1	3.62000000000000010658	1.81000000000000005329	38.00999999999999801048
	223	1	5.42999999999999971578	0.00000000000000000000	38.00999999999999801048
	224	1	5.42999999999999971578	1.81000000000000005329	36.20000000000000284217
	225	1	3.62000000000000010658	0.00000000000000000000	39.82000000000000028422
	226	1	3.62000000000000010658	1.81000000000000005329	41.63000000000000255795
	227	1	5.42999999999999971578	0.00000000000000000000	41.63000000000000255795
	228	1	5.42999999999999971578	1.81000000000000005329	39.82000000000000028422
	229	1	3.62000000000000010658	0.00000000000000000000	43.43999999999999772626
	230	1	3.62000000000000010658	1.81000000000000005329	45.25000000000000000000
	231	1	5.42999999999999971578	0.00000000000000000000	45.25000000000000000000
	232	1	5.42999999999999971578	1.81000000000000005329	43.43999999999999772626
	233	1	3.62000000000000010658	0.00000000000000000000	47.06000000000000227374
	234	1	3.62000000000000010658	1.81000000000000005329	48.87000000000000454747
	235	1	5.42999999999999971578	0.00000000000000000000	48.87000000000000454747
	236	1	5.42999999999999971578	1.81000000000000005329	47.06000000000000227374
	237	1	3.62000000000000010658	0.00000000000000000000	50.67999999999999971578
	238	1	3.62000000000000010658	1.81000000000000005329	52.49000000000000198952
	239	1	5.42999999999999971578	0.00000000000000000000	52.49000000000000198952
	240	1	5.42999999999999971578	1.81000000000000005329	50.67999999999999971578
	241	1	3.62000000000000010658	3.62000000000000010658	0.00000000000000000000
	242	1	3.62000000000000010658	5.42999999999999971578	1.81000000000000005329
	243	1	5.42999999999999971578	3.62000000000000010658	1.81000000000000005329
	244	1	5.42999999999999971578	5.42999999999999971578	0.00000000000000000000
	245	1	3.62000000000000010658	3.62000000000000010658	3.62000000000000010658
	246	1	3.62000000000000010658	5.42999999999999971578	5.42999999999999971578
	247	1	5.42999999999999971578	3.62000000000000010658	5.42999999999999971578
	248	1	5.42999999999999971578	5.42999999999999971578	3.62000000000000010658
	249	1	3.62000000000000010658	3.62000000000000010658	7.24000000000000021316
	250	1	3.62000000000000010658	5.42999999999999971578	9.05000000000000071054
	251	1	5.42999999999999971578	3.62000000000000010658	9.05000000000000071054
	252	1	5.42999999999999971578	5.42999999999999971578	7.24000000000000021316
	253	1	3.62000000000000010658	3.62000000000000010658	10.85999999999999943157
	254	1	3.62000000000000010658	5.42999999999999971578	12.66999999999999992895
	255	1	5.42999999999999971578	3.62000000000000010658	12.66999999999999992895
	256	1	5.42999999999999971578	5.42999999999999971578	10.85999999999999943157
	257	1	3.62000000000000010658	3.62000000000000010658	14.48000000000000042633
	258	1	3.62000000000000010658	5.42999999999999971578	16.28999999999999914735
	259	1	5.42999999999999971578	3.62000000000000010658	16.28999999999999914735
	260	1	5.42999999999999971578	5.42999999999999971578	14.48000000000000042633
	261	1	3.62000000000000010658	3.62000000000000010658	18.10000000000000142109
	262	1	3.62000000000000010658	5.42999999999999971578	19.91000000000000014211
	263	1	5.42999999999999971578	3.62000000000000010658	19.91000000000000014211
	264	1	5.42999999999999971578	5.42999999999999971578	18.10000000000000142109
	265	1	3.62000000000000010658	3.62000000000000010658	21.71999999999999886313
	266	1	3.62000000000000010658	5.42999999999999971578	23.53000000000000113687
	267	1	5.42999999999999971578	3.62000000000000010658	23.53000000000000113687
	268	1	5.42999999999999971578	5.42999999999999971578	21.71999999999999886313
	269	1	3.62000000000000010658	3.62000000000000010658	25.33999999999999985789
	270	1	3.62000000000000010658	5.42999999999999971578	27.15000000000000213163
	271	1	5.42999999999999971578	3.62000000000000010658	27.15000000000000213163
	272	1	5.42999999999999971578	5.42999999999999971578	25.33999999999999985789
	273	1	3.62000000000000010658	3.62000000000000010658	28.96000000000000085265
	274	1	3.62000000000000010658	5.42999999999999971578	30.76999999999999957367
	275	1	5.42999999999999971578	3.62000000000000010658	30.76999999999999957367
	276	1	5.42999999999999971578	5.42999999999999971578	28.96000000000000085265
	277	1	3.62000000000000010658	3.62000000000000010658	32.57999999999999829470
	278	1	3.62000000000000010658	5.42999999999999971578	34.39000000000000056843
	279	1	5.42999999999999971578	3.62000000000000010658	34.39000000000000056843
	280	1	5.42999999999999971578	5.42999999999999971578	32.57999999999999829470
	281	1	3.62000000000000010658	3.62000000000000010658	36.20000000000000284217
	282	1	3.62000000000000010658	5.42999999999999971578	38.00999999999999801048
	283	1	5.42999999999999971578	3.62000000000000010658	38.00999999999999801048
	284	1	5.42999999999999971578	5.42999999999999971578	36.20000000000000284217
	285	1	3.62000000000000010658	3.62000000000000010658	39.82000000000000028422
	286	1	3.62000000000000010658	5.42999999999999971578	41.63000000000000255795
	287	1	5.42999999999999971578	3.62000000000000010658	41.63000000000000255795
	288	1	5.42999999999999971578	5.42999999999999971578	39.82000000000000028422
	289	1	3.62000000000000010658	3.62000000000000010658	43.43999999999999772626
	290	1	3.62000000000000010658	5.42999999999999971578	45.25000000000000000000
	291	1	5.42999999999999971578	3.62000000000000010658	45.25000000000000000000
	292	1	5.42999999999999971578	5.42999999999999971578	43.43999999999999772626
	293	1	3.62000000000000010658	3.62000000000000010658	47.06000000000000227374
	294	1	3.62000000000000010658	5.42999999999999971578	48.87000000000000454747
	295	1	5.42999999999999971578	3.62000000000000010658	48.87000000000000454747
	296	1	5.42999999999999971578	5.42999999999999971578	47.06000000000000227374
	297	1	3.62000000000000010658	3.62000000000000010658	50.67999999999999971578
	298	1	3.62000000000000010658	5.42999999999999971578	52.49000000000000198952
	299	1	5.42999999999999971578	3.62000000000000010658	52.49000000000000198952
	300	1	5.42999999999999971578	5.42999999999999971578	50.67999999999999971578
	301	1	3.62000000000000010658	7.24000000000000021316	0.00000000000000000000
	302	1	3.62000000000000010658	9.05000000000000071054	1.81000000000000005329
	303	1	5.42999999999999971578	7.24000000000000021316	1.81000000000000005329
	304	1	5.42999999999999971578	9.05000000000000071054	0.00000000000000000000
	305	1	3.62000000000000010658	7.24000000000000021316	3.62000000000000010658
	306	1	3.62000000000000010658	9.05000000000000071054	5.42999999999999971578
	307	1	5.42999999999999971578	7.24000000000000021316	5.42999999999999971578
	308	1	5.42999999999999971578	9.05000000000000071054	3.62000000000000010658
	309	1	3.62000000000000010658	7.24000000000000021316	7.24000000000000021316
	310	1	3.62000000000000010658	9.05000000000000071054	9.05000000000000071054
	311	1	5.42999999999999971578	7.24000000000000021316	9.05000000000000071054
	312	1	5.42999999999999971578	9.05000000000000071054	7.24000000000000021316
	313	1	3.62000000000000010658	7.24000000000000021316	10.85999999999999943157
	314	1	3.62000000000000010658	9.05000000000000071054	12.66999999999999992895
	315	1	5.42999999999999971578	7.24000000000000021316	12.66999999999999992895
	316	1	5.42999999999999971578	9.05000000000000071054	10.85999999999999943157
	317	1	3.62000000000000010658	7.24000000000000021316	14.48000000000000042633
	318	1	3.62000000000000010658	9.05000000000000071054	16.28999999999999914735
	319	1	5.42999999999999971578	7.24000000000000021316	16.28999999999999914735
	320	1	5.42999999999999971578	9.05000000000000071054	14.48000000000000042633
	321	1	3.62000000000000010658	7.24000000000000021316	18.10000000000000142109
	322	1	3.62000000000000010658	9.05000000000000071054	19.91000000000000014211
	323	1	5.42999999999999971578	7.24000000000000021316	19.91000000000000014211
	324	1	5.42999999999999971578	9.05000000000000071054	18.10000000000000142109
	325	1	3.62000000000000010658	7.24000000000000021316	21.71999999999999886313
	326	1	3.62000000000000010658	9.05000000000000071054	23.53000000000000113687
	327	1	5.42999999999999971578	7.24000000000000021316	23.53000000000000113687
	328	1	5.42999999999999971578	9.05000000000000071054	21.71999999999999886313
	329	1	3.62000000000000010658	7.24000000000000021316	25.33999999999999985789
	330	1	3.62000000000000010658	9.05000000000000071054	27.15000000000000213163
	331	1	5.42999999999999971578	7.24000000000000021316	27.15000000000000213163
	332	1	5.42999999999999971578	9.05000000000000071054	25.33999999999999985789
	333	1	3.62000000000000010658	7.24000000000000021316	28.96000000000000085265
	334	1	3.62000000000000010658	9.05000000000000071054	30.76999999999999957367
	335	1	5.42999999999999971578	7.24000000000000021316	30.76999999999999957367
	336	1	5.42999999999999971578	9.05000000000000071054	28.96000000000000085265
	337	1	3.62000000000000010658	7.24000000000000021316	32.57999999999999829470
	338	1	3.62000000000000010658	9.05000000000000071054	34.39000000000000056843
	339	1	5.42999999999999971578	7.24000000000000021316	34.39000000000000056843
	340	1	5.42999999999999971578	9.05000000000000071054	32.57999999999999829470
	341	1	3.62000000000000010658	7.24000000000000021316	36.20000000000000284217
	342	1	3.62000000000000010658	9.05000000000000071054	38.00999999999999801048
	343	1	5.42999999999999971578	7.24000000000000021316	38.00999999999999801048
	344	1	5.42999999999999971578	9.05000000000000071054	36.20000000000000284217
	345	1	3.62000000000000010658	7.24000000000000021316	39.82000000000000028422
	346	1	3.62000000000000010658	9.05000000000000071054	41.63000000000000255795
	347	1	5.42999999999999971578	7.24000000000000021316	41.63000000000000255795
	348	1	5.42999999999999971578	9.05000000000000071054	39.82000000000000028422
	349	1	3.62000000000000010658	7.24000000000000021316	43.43999999999999772626
	350	1	3.62000000000000010658	9.05000000000000071054	45.25000000000000000000
	351	1	5.42999999999999971578	7.24000000000000021316	45.25000000000000000000
	352	1	5.42999999999999971578	9.05000000000000071054	43.43999999999999772626
	353	1	3.62000000000000010658	7.24000000000000021316	47.06000000000000227374
	354	1	3.62000000000000010658	9.05000000000000071054	48.87000000000000454747
	355	1	5.42999999999999971578	7.24000000000000021316	48.87000000000000454747
	356	1	5.42999999999999971578	9.05000000000000071054	47.06000000000000227374
	357	1	3.62000000000000010658	7.24000000000000021316	50.67999999999999971578
	358	1	3.62000000000000010658	9.05000000000000071054	52.49000000000000198952
	359	1	5.42999999999999971578	7.24000000000000021316	52.49000000000000198952
	360	1	5.42999999999999971578	9.05000000000000071054	50.67999999999999971578
	361	1	7.24000000000000021316	0.00000000000000000000	0.00000000000000000000
	362	1	7.24000000000000021316	1.81000000000000005329	1.81000000000000005329
	363	1	9.05000000000000071054	0.00000000000000000000	1.81000000000000005329
	364	1	9.05000000000000071054	1.81000000000000005329	0.00000000000000000000
	365	1	7.24000000000000021316	0.00000000000000000000	3.62000000000000010658
	366	1	7.24000000000000021316	1.81000000000000005329	5.42999999999999971578
	367	1	9.05000000000000071054	0.00000000000000000000	5.42999999999999971578
	368	1	9.05000000000000071054	1.81000000000000005329	3.62000000000000010658
	369	1	7.24000000000000021316	0.00000000000000000000	7.24000000000000021316
	370	1	7.24000000000000021316	1.81000000000000005329	9.05000000000000071054
	371	1	9.05000000000000071054	0.00000000000000000000	9.05000000000000071054
	372	1	9.05000000000000071054	1.81000000000000005329	7.24000000000000021316
	373	1	7.24000000000000021316	0.00000000000000000000	10.85999999999999943157
	374	1	7.24000000000000021316	1.81000000000000005329	12.66999999999999992895
	375	1	9.05000000000000071054	0.00000000000000000000	12.66999999999999992895
	376	1	9.05000000000000071054	1.81000000000000005329	10.85999999999999943157
	377	1	7.24000000000000021316	0.00000000000000000000	14.48000000000000042633
	378	1	7.24000000000000021316	1.81000000000000005329	16.28999999999999914735
	379	1	9.05000000000000071054	0.00000000000000000000	16.28999999999999914735
	380	1	9.05000000000000071054	1.81000000000000005329	14.48000000000000042633
	381	1	7.24000000000000021316	0.00000000000000000000	18.10000000000000142109
	382	1	7.24000000000000021316	1.81000000000000005329	19.91000000000000014211
	383	1	9.05000000000000071054	0.00000000000000000000	19.91000000000000014211
	384	1	9.05000000000000071054	1.81000000000000005329	18.10000000000000142109
	385	1	7.24000000000000021316	0.00000000000000000000	21.71999999999999886313
	386	1	7.24000000000000021316	1.81000000000000005329	23.53000000000000113687
	387	1	9.05000000000000071054	0.00000000000000000000	23.53000000000000113687
	388	1	9.05000000000000071054	1.81000000000000005329	21.71999999999999886313