 
 480 atoms 
 
 1 atom types
 0.00000000000000000000 7.22663191632614854143 xlo xhi
 0.00000000000000000000 7.22663191632614854143 ylo yhi
 0.00000000000000000000 123.39947874489223522687 zlo zhi
 
 Atoms 
 
	1	1	0.00000000000000000000	0.00000000000000000000	0.00000000000000000000
	2	1	0.00000000000000000000	1.80665797908153713536	1.80665797908153713536
	3	1	1.80665797908153713536	0.00000000000000000000	1.80665797908153713536
	4	1	1.80665797908153713536	1.80665797908153713536	0.00000000000000000000
	5	1	0.00000000000000000000	0.00000000000000000000	3.61331595816307427071
	6	1	0.00000000000000000000	1.80665797908153713536	5.41997393724461140607
	7	1	1.80665797908153713536	0.00000000000000000000	5.41997393724461140607
	8	1	1.80665797908153713536	1.80665797908153713536	3.61331595816307427071
	9	1	0.00000000000000000000	0.00000000000000000000	7.22663191632614854143
	10	1	0.00000000000000000000	1.80665797908153713536	9.03328989540768567679
	11	1	1.80665797908153713536	0.00000000000000000000	9.03328989540768567679
	12	1	1.80665797908153713536	1.80665797908153713536	7.22663191632614854143
	13	1	0.00000000000000000000	0.00000000000000000000	10.83994787448922281214
	14	1	0.00000000000000000000	1.80665797908153713536	12.64660585357075994750
	15	1	1.80665797908153713536	0.00000000000000000000	12.64660585357075994750
	16	1	1.80665797908153713536	1.80665797908153713536	10.83994787448922281214
	17	1	0.00000000000000000000	0.00000000000000000000	14.45326383265229708286
	18	1	0.00000000000000000000	1.80665797908153713536	16.25992181173383244186
	19	1	1.80665797908153713536	0.00000000000000000000	16.25992181173383244186
	20	1	1.80665797908153713536	1.80665797908153713536	14.45326383265229708286
	21	1	0.00000000000000000000	0.00000000000000000000	18.06657979081537135357
	22	1	0.00000000000000000000	1.80665797908153713536	19.87323776989691026529
	23	1	1.80665797908153713536	0.00000000000000000000	19.87323776989691026529
	24	1	1.80665797908153713536	1.80665797908153713536	18.06657979081537135357
	25	1	0.00000000000000000000	0.00000000000000000000	21.67989574897844562429
	26	1	0.00000000000000000000	1.80665797908153713536	23.48655372805998098329
	27	1	1.80665797908153713536	0.00000000000000000000	23.48655372805998098329
	28	1	1.80665797908153713536	1.80665797908153713536	21.67989574897844562429
	29	1	0.00000000000000000000	0.00000000000000000000	25.29321170714151989500
	30	1	0.00000000000000000000	1.80665797908153713536	27.09986968622305880672
	31	1	1.80665797908153713536	0.00000000000000000000	27.09986968622305880672
	32	1	1.80665797908153713536	1.80665797908153713536	25.29321170714151989500
	33	1	0.00000000000000000000	0.00000000000000000000	28.90652766530459416572
	34	1	0.00000000000000000000	1.80665797908153713536	30.71318564438612952472
	35	1	1.80665797908153713536	0.00000000000000000000	30.71318564438612952472
	36	1	1.80665797908153713536	1.80665797908153713536	28.90652766530459416572
	37	1	0.00000000000000000000	0.00000000000000000000	32.51984362346766488372
	38	1	0.00000000000000000000	1.80665797908153713536	34.32650160254920024272
	39	1	1.80665797908153713536	0.00000000000000000000	34.32650160254920024272
	40	1	1.80665797908153713536	1.80665797908153713536	32.51984362346766488372
	41	1	0.00000000000000000000	0.00000000000000000000	36.13315958163074270715
	42	1	0.00000000000000000000	1.80665797908153713536	37.93981756071227806615
	43	1	1.80665797908153713536	0.00000000000000000000	37.93981756071227806615
	44	1	1.80665797908153713536	1.80665797908153713536	36.13315958163074270715
	45	1	0.00000000000000000000	0.00000000000000000000	39.74647553979382053058
	46	1	0.00000000000000000000	1.80665797908153713536	41.55313351887535588958
	47	1	1.80665797908153713536	0.00000000000000000000	41.55313351887535588958
	48	1	1.80665797908153713536	1.80665797908153713536	39.74647553979382053058
	49	1	0.00000000000000000000	0.00000000000000000000	43.35979149795689124858
	50	1	0.00000000000000000000	1.80665797908153713536	45.16644947703842660758
	51	1	1.80665797908153713536	0.00000000000000000000	45.16644947703842660758
	52	1	1.80665797908153713536	1.80665797908153713536	43.35979149795689124858
	53	1	0.00000000000000000000	0.00000000000000000000	46.97310745611996196658
	54	1	0.00000000000000000000	1.80665797908153713536	48.77976543520149732558
	55	1	1.80665797908153713536	0.00000000000000000000	48.77976543520149732558
	56	1	1.80665797908153713536	1.80665797908153713536	46.97310745611996196658
	57	1	0.00000000000000000000	0.00000000000000000000	50.58642341428303979001
	58	1	0.00000000000000000000	1.80665797908153713536	52.39308139336457514901
	59	1	1.80665797908153713536	0.00000000000000000000	52.39308139336457514901
	60	1	1.80665797908153713536	1.80665797908153713536	50.58642341428303979001
	61	1	0.00000000000000000000	0.00000000000000000000	54.19973937244611761344
	62	1	0.00000000000000000000	1.80665797908153713536	56.00639735152765297244
	63	1	1.80665797908153713536	0.00000000000000000000	56.00639735152765297244
	64	1	1.80665797908153713536	1.80665797908153713536	54.19973937244611761344
	65	1	0.00000000000000000000	0.00000000000000000000	57.81305533060918833144
	66	1	0.00000000000000000000	1.80665797908153713536	59.61971330969072369044
	67	1	1.80665797908153713536	0.00000000000000000000	59.61971330969072369044
	68	1	1.80665797908153713536	1.80665797908153713536	57.81305533060918833144
	69	1	0.00000000000000000000	0.00000000000000000000	61.42637128877225904944
	70	1	0.00000000000000000000	1.80665797908153713536	63.23302926785379440844
	71	1	1.80665797908153713536	0.00000000000000000000	63.23302926785379440844
	72	1	1.80665797908153713536	1.80665797908153713536	61.42637128877225904944
	73	1	0.00000000000000000000	0.00000000000000000000	65.03968724693532976744
	74	1	0.00000000000000000000	1.80665797908153713536	66.84634522601686512644
	75	1	1.80665797908153713536	0.00000000000000000000	66.84634522601686512644
	76	1	1.80665797908153713536	1.80665797908153713536	65.03968724693532976744
	77	1	0.00000000000000000000	0.00000000000000000000	68.65300320509841469629
	78	1	0.00000000000000000000	1.80665797908153713536	70.45966118417995005530
	79	1	1.80665797908153713536	0.00000000000000000000	70.45966118417995005530
	80	1	1.80665797908153713536	1.80665797908153713536	68.65300320509841469629
	81	1	0.00000000000000000000	0.00000000000000000000	72.26631916326148541430
	82	1	0.00000000000000000000	1.80665797908153713536	74.07297714234302077330
	83	1	1.80665797908153713536	0.00000000000000000000	74.07297714234302077330
	84	1	1.80665797908153713536	1.80665797908153713536	72.26631916326148541430
	85	1	0.00000000000000000000	0.00000000000000000000	75.87963512142455613230
	86	1	0.00000000000000000000	1.80665797908153713536	77.68629310050609149130
	87	1	1.80665797908153713536	0.00000000000000000000	77.68629310050609149130
	88	1	1.80665797908153713536	1.80665797908153713536	75.87963512142455613230
	89	1	0.00000000000000000000	0.00000000000000000000	79.49295107958764106115
	90	1	0.00000000000000000000	1.80665797908153713536	81.29960905866917642015
	91	1	1.80665797908153713536	0.00000000000000000000	81.29960905866917642015
	92	1	1.80665797908153713536	1.80665797908153713536	79.49295107958764106115
	93	1	0.00000000000000000000	0.00000000000000000000	83.10626703775071177915
	94	1	0.00000000000000000000	1.80665797908153713536	84.91292501683224713815
	95	1	1.80665797908153713536	0.00000000000000000000	84.91292501683224713815
	96	1	1.80665797908153713536	1.80665797908153713536	83.10626703775071177915
	97	1	0.00000000000000000000	0.00000000000000000000	86.71958299591378249715
	98	1	0.00000000000000000000	1.80665797908153713536	88.52624097499531785616
	99	1	1.80665797908153713536	0.00000000000000000000	88.52624097499531785616
	100	1	1.80665797908153713536	1.80665797908153713536	86.71958299591378249715
	101	1	0.00000000000000000000	0.00000000000000000000	90.33289895407685321516
	102	1	0.00000000000000000000	1.80665797908153713536	92.13955693315838857416
	103	1	1.80665797908153713536	0.00000000000000000000	92.13955693315838857416
	104	1	1.80665797908153713536	1.80665797908153713536	90.33289895407685321516
	105	1	0.00000000000000000000	0.00000000000000000000	93.94621491223992393316
	106	1	0.00000000000000000000	1.80665797908153713536	95.75287289132145929216
	107	1	1.80665797908153713536	0.00000000000000000000	95.75287289132145929216
	108	1	1.80665797908153713536	1.80665797908153713536	93.94621491223992393316
	109	1	0.00000000000000000000	0.00000000000000000000	97.55953087040300886201
	110	1	0.00000000000000000000	1.80665797908153713536	99.36618884948454422101
	111	1	1.80665797908153713536	0.00000000000000000000	99.36618884948454422101
	112	1	1.80665797908153713536	1.80665797908153713536	97.55953087040300886201
	113	1	0.00000000000000000000	0.00000000000000000000	101.17284682856607958001
	114	1	0.00000000000000000000	1.80665797908153713536	102.97950480764761493901
	115	1	1.80665797908153713536	0.00000000000000000000	102.97950480764761493901
	116	1	1.80665797908153713536	1.80665797908153713536	101.17284682856607958001
	117	1	0.00000000000000000000	0.00000000000000000000	104.78616278672915029802
	118	1	0.00000000000000000000	1.80665797908153713536	106.59282076581068565702
	119	1	1.80665797908153713536	0.00000000000000000000	106.59282076581068565702
	120	1	1.80665797908153713536	1.80665797908153713536	104.78616278672915029802
	121	1	0.00000000000000000000	3.61331595816307427071	0.00000000000000000000
	122	1	0.00000000000000000000	5.41997393724461140607	1.80665797908153713536
	123	1	1.80665797908153713536	3.61331595816307427071	1.80665797908153713536
	124	1	1.80665797908153713536	5.41997393724461140607	0.00000000000000000000
	125	1	0.00000000000000000000	3.61331595816307427071	3.61331595816307427071
	126	1	0.00000000000000000000	5.41997393724461140607	5.41997393724461140607
	127	1	1.80665797908153713536	3.61331595816307427071	5.41997393724461140607
	128	1	1.80665797908153713536	5.41997393724461140607	3.61331595816307427071
	129	1	0.00000000000000000000	3.61331595816307427071	7.22663191632614854143
	130	1	0.00000000000000000000	5.41997393724461140607	9.03328989540768567679
	131	1	1.80665797908153713536	3.61331595816307427071	9.03328989540768567679
	132	1	1.80665797908153713536	5.41997393724461140607	7.22663191632614854143
	133	1	0.00000000000000000000	3.61331595816307427071	10.83994787448922281214
	134	1	0.00000000000000000000	5.41997393724461140607	12.64660585357075994750
	135	1	1.80665797908153713536	3.61331595816307427071	12.64660585357075994750
	136	1	1.80665797908153713536	5.41997393724461140607	10.83994787448922281214
	137	1	0.00000000000000000000	3.61331595816307427071	14.45326383265229708286
	138	1	0.00000000000000000000	5.41997393724461140607	16.25992181173383244186
	139	1	1.80665797908153713536	3.61331595816307427071	16.25992181173383244186
	140	1	1.80665797908153713536	5.41997393724461140607	14.45326383265229708286
	141	1	0.00000000000000000000	3.61331595816307427071	18.06657979081537135357
	142	1	0.00000000000000000000	5.41997393724461140607	19.87323776989691026529
	143	1	1.80665797908153713536	3.61331595816307427071	19.87323776989691026529
	144	1	1.80665797908153713536	5.41997393724461140607	18.06657979081537135357
	145	1	0.00000000000000000000	3.61331595816307427071	21.67989574897844562429
	146	1	0.00000000000000000000	5.41997393724461140607	23.48655372805998098329
	147	1	1.80665797908153713536	3.61331595816307427071	23.48655372805998098329
	148	1	1.80665797908153713536	5.41997393724461140607	21.67989574897844562429
	149	1	0.00000000000000000000	3.61331595816307427071	25.29321170714151989500
	150	1	0.00000000000000000000	5.41997393724461140607	27.09986968622305880672
	151	1	1.80665797908153713536	3.61331595816307427071	27.09986968622305880672
	152	1	1.80665797908153713536	5.41997393724461140607	25.29321170714151989500
	153	1	0.00000000000000000000	3.61331595816307427071	28.90652766530459416572
	154	1	0.00000000000000000000	5.41997393724461140607	30.71318564438612952472
	155	1	1.80665797908153713536	3.61331595816307427071	30.71318564438612952472
	156	1	1.80665797908153713536	5.41997393724461140607	28.90652766530459416572
	157	1	0.00000000000000000000	3.61331595816307427071	32.51984362346766488372
	158	1	0.00000000000000000000	5.41997393724461140607	34.32650160254920024272
	159	1	1.80665797908153713536	3.61331595816307427071	34.32650160254920024272
	160	1	1.80665797908153713536	5.41997393724461140607	32.51984362346766488372
	161	1	0.00000000000000000000	3.61331595816307427071	36.13315958163074270715
	162	1	0.00000000000000000000	5.41997393724461140607	37.93981756071227806615
	163	1	1.80665797908153713536	3.61331595816307427071	37.93981756071227806615
	164	1	1.80665797908153713536	5.41997393724461140607	36.13315958163074270715
	165	1	0.00000000000000000000	3.61331595816307427071	39.74647553979382053058
	166	1	0.00000000000000000000	5.41997393724461140607	41.55313351887535588958
	167	1	1.80665797908153713536	3.61331595816307427071	41.55313351887535588958
	168	1	1.80665797908153713536	5.41997393724461140607	39.74647553979382053058
	169	1	0.00000000000000000000	3.61331595816307427071	43.35979149795689124858
	170	1	0.00000000000000000000	5.41997393724461140607	45.16644947703842660758
	171	1	1.80665797908153713536	3.61331595816307427071	45.16644947703842660758
	172	1	1.80665797908153713536	5.41997393724461140607	43.35979149795689124858
	173	1	0.00000000000000000000	3.61331595816307427071	46.97310745611996196658
	174	1	0.00000000000000000000	5.41997393724461140607	48.77976543520149732558
	175	1	1.80665797908153713536	3.61331595816307427071	48.77976543520149732558
	176	1	1.80665797908153713536	5.41997393724461140607	46.97310745611996196658
	177	1	0.00000000000000000000	3.61331595816307427071	50.58642341428303979001
	178	1	0.00000000000000000000	5.41997393724461140607	52.39308139336457514901
	179	1	1.80665797908153713536	3.61331595816307427071	52.39308139336457514901
	180	1	1.80665797908153713536	5.41997393724461140607	50.58642341428303979001
	181	1	0.00000000000000000000	3.61331595816307427071	54.19973937244611761344
	182	1	0.00000000000000000000	5.41997393724461140607	56.00639735152765297244
	183	1	1.80665797908153713536	3.61331595816307427071	56.00639735152765297244
	184	1	1.80665797908153713536	5.41997393724461140607	54.19973937244611761344
	185	1	0.00000000000000000000	3.61331595816307427071	57.81305533060918833144
	186	1	0.00000000000000000000	5.41997393724461140607	59.61971330969072369044
	187	1	1.80665797908153713536	3.61331595816307427071	59.61971330969072369044
	188	1	1.80665797908153713536	5.41997393724461140607	57.81305533060918833144
	189	1	0.00000000000000000000	3.61331595816307427071	61.42637128877225904944
	190	1	0.00000000000000000000	5.41997393724461140607	63.23302926785379440844
	191	1	1.80665797908153713536	3.61331595816307427071	63.23302926785379440844
	192	1	1.80665797908153713536	5.41997393724461140607	61.42637128877225904944
	193	1	0.00000000000000000000	3.61331595816307427071	65.03968724693532976744
	194	1	0.00000000000000000000	5.41997393724461140607	66.84634522601686512644
	195	1	1.80665797908153713536	3.61331595816307427071	66.84634522601686512644
	196	1	1.80665797908153713536	5.41997393724461140607	65.03968724693532976744
	197	1	0.00000000000000000000	3.61331595816307427071	68.65300320509841469629
	198	1	0.00000000000000000000	5.41997393724461140607	70.45966118417995005530
	199	1	1.80665797908153713536	3.61331595816307427071	70.45966118417995005530
	200	1	1.80665797908153713536	5.41997393724461140607	68.65300320509841469629
	201	1	0.00000000000000000000	3.61331595816307427071	72.26631916326148541430
	202	1	0.00000000000000000000	5.41997393724461140607	74.07297714234302077330
	203	1	1.80665797908153713536	3.61331595816307427071	74.07297714234302077330
	204	1	1.80665797908153713536	5.41997393724461140607	72.26631916326148541430
	205	1	0.00000000000000000000	3.61331595816307427071	75.87963512142455613230
	206	1	0.00000000000000000000	5.41997393724461140607	77.68629310050609149130
	207	1	1.80665797908153713536	3.61331595816307427071	77.68629310050609149130
	208	1	1.80665797908153713536	5.41997393724461140607	75.87963512142455613230
	209	1	0.00000000000000000000	3.61331595816307427071	79.49295107958764106115
	210	1	0.00000000000000000000	5.41997393724461140607	81.29960905866917642015
	211	1	1.80665797908153713536	3.61331595816307427071	81.29960905866917642015
	212	1	1.80665797908153713536	5.41997393724461140607	79.49295107958764106115
	213	1	0.00000000000000000000	3.61331595816307427071	83.10626703775071177915
	214	1	0.00000000000000000000	5.41997393724461140607	84.91292501683224713815
	215	1	1.80665797908153713536	3.61331595816307427071	84.91292501683224713815
	216	1	1.80665797908153713536	5.41997393724461140607	83.10626703775071177915
	217	1	0.00000000000000000000	3.61331595816307427071	86.71958299591378249715
	218	1	0.00000000000000000000	5.41997393724461140607	88.52624097499531785616
	219	1	1.80665797908153713536	3.61331595816307427071	88.52624097499531785616
	220	1	1.80665797908153713536	5.41997393724461140607	86.71958299591378249715
	221	1	0.00000000000000000000	3.61331595816307427071	90.33289895407685321516
	222	1	0.00000000000000000000	5.41997393724461140607	92.13955693315838857416
	223	1	1.80665797908153713536	3.61331595816307427071	92.13955693315838857416
	224	1	1.80665797908153713536	5.41997393724461140607	90.33289895407685321516
	225	1	0.00000000000000000000	3.61331595816307427071	93.94621491223992393316
	226	1	0.00000000000000000000	5.41997393724461140607	95.75287289132145929216
	227	1	1.80665797908153713536	3.61331595816307427071	95.75287289132145929216
	228	1	1.80665797908153713536	5.41997393724461140607	93.94621491223992393316
	229	1	0.00000000000000000000	3.61331595816307427071	97.55953087040300886201
	230	1	0.00000000000000000000	5.41997393724461140607	99.36618884948454422101
	231	1	1.80665797908153713536	3.61331595816307427071	99.36618884948454422101
	232	1	1.80665797908153713536	5.41997393724461140607	97.55953087040300886201
	233	1	0.00000000000000000000	3.61331595816307427071	101.17284682856607958001
	234	1	0.00000000000000000000	5.41997393724461140607	102.97950480764761493901
	235	1	1.80665797908153713536	3.61331595816307427071	102.97950480764761493901
	236	1	1.80665797908153713536	5.41997393724461140607	101.17284682856607958001
	237	1	0.00000000000000000000	3.61331595816307427071	104.78616278672915029802
	238	1	0.00000000000000000000	5.41997393724461140607	106.59282076581068565702
	239	1	1.80665797908153713536	3.61331595816307427071	106.59282076581068565702
	240	1	1.80665797908153713536	5.41997393724461140607	104.78616278672915029802
	241	1	3.61331595816307427071	0.00000000000000000000	0.00000000000000000000
	242	1	3.61331595816307427071	1.80665797908153713536	1.80665797908153713536
	243	1	5.41997393724461140607	0.00000000000000000000	1.80665797908153713536
	244	1	5.41997393724461140607	1.80665797908153713536	0.00000000000000000000
	245	1	3.61331595816307427071	0.00000000000000000000	3.61331595816307427071
	246	1	3.61331595816307427071	1.80665797908153713536	5.41997393724461140607
	247	1	5.41997393724461140607	0.00000000000000000000	5.41997393724461140607
	248	1	5.41997393724461140607	1.80665797908153713536	3.61331595816307427071
	249	1	3.61331595816307427071	0.00000000000000000000	7.22663191632614854143
	250	1	3.61331595816307427071	1.80665797908153713536	9.03328989540768567679
	251	1	5.41997393724461140607	0.00000000000000000000	9.03328989540768567679
	252	1	5.41997393724461140607	1.80665797908153713536	7.22663191632614854143
	253	1	3.61331595816307427071	0.00000000000000000000	10.83994787448922281214
	254	1	3.61331595816307427071	1.80665797908153713536	12.64660585357075994750
	255	1	5.41997393724461140607	0.00000000000000000000	12.64660585357075994750
	256	1	5.41997393724461140607	1.80665797908153713536	10.83994787448922281214
	257	1	3.61331595816307427071	0.00000000000000000000	14.45326383265229708286
	258	1	3.61331595816307427071	1.80665797908153713536	16.25992181173383244186
	259	1	5.41997393724461140607	0.00000000000000000000	16.25992181173383244186
	260	1	5.41997393724461140607	1.80665797908153713536	14.45326383265229708286
	261	1	3.61331595816307427071	0.00000000000000000000	18.06657979081537135357
	262	1	3.61331595816307427071	1.80665797908153713536	19.87323776989691026529
	263	1	5.41997393724461140607	0.00000000000000000000	19.87323776989691026529
	264	1	5.41997393724461140607	1.80665797908153713536	18.06657979081537135357
	265	1	3.61331595816307427071	0.00000000000000000000	21.67989574897844562429
	266	1	3.61331595816307427071	1.80665797908153713536	23.48655372805998098329
	267	1	5.41997393724461140607	0.00000000000000000000	23.48655372805998098329
	268	1	5.41997393724461140607	1.80665797908153713536	21.67989574897844562429
	269	1	3.61331595816307427071	0.00000000000000000000	25.29321170714151989500
	270	1	3.61331595816307427071	1.80665797908153713536	27.09986968622305880672
	271	1	5.41997393724461140607	0.00000000000000000000	27.09986968622305880672
	272	1	5.41997393724461140607	1.80665797908153713536	25.29321170714151989500
	273	1	3.61331595816307427071	0.00000000000000000000	28.90652766530459416572
	274	1	3.61331595816307427071	1.80665797908153713536	30.71318564438612952472
	275	1	5.41997393724461140607	0.00000000000000000000	30.71318564438612952472
	276	1	5.41997393724461140607	1.80665797908153713536	28.90652766530459416572
	277	1	3.61331595816307427071	0.00000000000000000000	32.51984362346766488372
	278	1	3.61331595816307427071	1.80665797908153713536	34.32650160254920024272
	279	1	5.41997393724461140607	0.00000000000000000000	34.32650160254920024272
	280	1	5.41997393724461140607	1.80665797908153713536	32.51984362346766488372
	281	1	3.61331595816307427071	0.00000000000000000000	36.13315958163074270715
	282	1	3.61331595816307427071	1.80665797908153713536	37.93981756071227806615
	283	1	5.41997393724461140607	0.00000000000000000000	37.93981756071227806615
	284	1	5.41997393724461140607	1.80665797908153713536	36.13315958163074270715
	285	1	3.61331595816307427071	0.00000000000000000000	39.74647553979382053058
	286	1	3.61331595816307427071	1.80665797908153713536	41.55313351887535588958
	287	1	5.41997393724461140607	0.00000000000000000000	41.55313351887535588958
	288	1	5.41997393724461140607	1.80665797908153713536	39.74647553979382053058
	289	1	3.61331595816307427071	0.00000000000000000000	43.35979149795689124858
	290	1	3.61331595816307427071	1.80665797908153713536	45.16644947703842660758
	291	1	5.41997393724461140607	0.00000000000000000000	45.16644947703842660758
	292	1	5.41997393724461140607	1.80665797908153713536	43.35979149795689124858
	293	1	3.61331595816307427071	0.00000000000000000000	46.97310745611996196658
	294	1	3.61331595816307427071	1.80665797908153713536	48.77976543520149732558
	295	1	5.41997393724461140607	0.00000000000000000000	48.77976543520149732558
	296	1	5.41997393724461140607	1.80665797908153713536	46.97310745611996196658
	297	1	3.61331595816307427071	0.00000000000000000000	50.58642341428303979001
	298	1	3.61331595816307427071	1.80665797908153713536	52.39308139336457514901
	299	1	5.41997393724461140607	0.00000000000000000000	52.39308139336457514901
	300	1	5.41997393724461140607	1.80665797908153713536	50.58642341428303979001
	301	1	3.61331595816307427071	0.00000000000000000000	54.19973937244611761344
	302	1	3.61331595816307427071	1.80665797908153713536	56.00639735152765297244
	303	1	5.41997393724461140607	0.00000000000000000000	56.00639735152765297244
	304	1	5.41997393724461140607	1.80665797908153713536	54.19973937244611761344
	305	1	3.61331595816307427071	0.00000000000000000000	57.81305533060918833144
	306	1	3.61331595816307427071	1.80665797908153713536	59.61971330969072369044
	307	1	5.41997393724461140607	0.00000000000000000000	59.61971330969072369044
	308	1	5.41997393724461140607	1.80665797908153713536	57.81305533060918833144
	309	1	3.61331595816307427071	0.00000000000000000000	61.42637128877225904944
	310	1	3.61331595816307427071	1.80665797908153713536	63.23302926785379440844
	311	1	5.41997393724461140607	0.00000000000000000000	63.23302926785379440844
	312	1	5.41997393724461140607	1.80665797908153713536	61.42637128877225904944
	313	1	3.61331595816307427071	0.00000000000000000000	65.03968724693532976744
	314	1	3.61331595816307427071	1.80665797908153713536	66.84634522601686512644
	315	1	5.41997393724461140607	0.00000000000000000000	66.84634522601686512644
	316	1	5.41997393724461140607	1.80665797908153713536	65.03968724693532976744
	317	1	3.61331595816307427071	0.00000000000000000000	68.65300320509841469629
	318	1	3.61331595816307427071	1.80665797908153713536	70.45966118417995005530
	319	1	5.41997393724461140607	0.00000000000000000000	70.45966118417995005530
	320	1	5.41997393724461140607	1.80665797908153713536	68.65300320509841469629
	321	1	3.61331595816307427071	0.00000000000000000000	72.26631916326148541430
	322	1	3.61331595816307427071	1.80665797908153713536	74.07297714234302077330
	323	1	5.41997393724461140607	0.00000000000000000000	74.07297714234302077330
	324	1	5.41997393724461140607	1.80665797908153713536	72.26631916326148541430
	325	1	3.61331595816307427071	0.00000000000000000000	75.87963512142455613230
	326	1	3.61331595816307427071	1.80665797908153713536	77.68629310050609149130
	327	1	5.41997393724461140607	0.00000000000000000000	77.68629310050609149130
	328	1	5.41997393724461140607	1.80665797908153713536	75.87963512142455613230
	329	1	3.61331595816307427071	0.00000000000000000000	79.49295107958764106115
	330	1	3.61331595816307427071	1.80665797908153713536	81.29960905866917642015
	331	1	5.41997393724461140607	0.00000000000000000000	81.29960905866917642015
	332	1	5.41997393724461140607	1.80665797908153713536	79.49295107958764106115
	333	1	3.61331595816307427071	0.00000000000000000000	83.10626703775071177915
	334	1	3.61331595816307427071	1.80665797908153713536	84.91292501683224713815
	335	1	5.41997393724461140607	0.00000000000000000000	84.91292501683224713815
	336	1	5.41997393724461140607	1.80665797908153713536	83.10626703775071177915
	337	1	3.61331595816307427071	0.00000000000000000000	86.71958299591378249715
	338	1	3.61331595816307427071	1.80665797908153713536	88.52624097499531785616
	339	1	5.41997393724461140607	0.00000000000000000000	88.52624097499531785616
	340	1	5.41997393724461140607	1.80665797908153713536	86.71958299591378249715
	341	1	3.61331595816307427071	0.00000000000000000000	90.33289895407685321516
	342	1	3.61331595816307427071	1.80665797908153713536	92.13955693315838857416
	343	1	5.41997393724461140607	0.00000000000000000000	92.13955693315838857416
	344	1	5.41997393724461140607	1.80665797908153713536	90.33289895407685321516
	345	1	3.61331595816307427071	0.00000000000000000000	93.94621491223992393316
	346	1	3.61331595816307427071	1.80665797908153713536	95.75287289132145929216
	347	1	5.41997393724461140607	0.00000000000000000000	95.75287289132145929216
	348	1	5.41997393724461140607	1.80665797908153713536	93.94621491223992393316
	349	1	3.61331595816307427071	0.00000000000000000000	97.55953087040300886201
	350	1	3.61331595816307427071	1.80665797908153713536	99.36618884948454422101
	351	1	5.41997393724461140607	0.00000000000000000000	99.36618884948454422101
	352	1	5.41997393724461140607	1.80665797908153713536	97.55953087040300886201
	353	1	3.61331595816307427071	0.00000000000000000000	101.17284682856607958001
	354	1	3.61331595816307427071	1.80665797908153713536	102.97950480764761493901
	355	1	5.41997393724461140607	0.00000000000000000000	102.97950480764761493901
	356	1	5.41997393724461140607	1.80665797908153713536	101.17284682856607958001
	357	1	3.61331595816307427071	0.00000000000000000000	104.78616278672915029802
	358	1	3.61331595816307427071	1.80665797908153713536	106.59282076581068565702
	359	1	5.41997393724461140607	0.00000000000000000000	106.59282076581068565702
	360	1	5.41997393724461140607	1.80665797908153713536	104.78616278672915029802
	361	1	3.61331595816307427071	3.61331595816307427071	0.00000000000000000000
	362	1	3.61331595816307427071	5.41997393724461140607	1.80665797908153713536
	363	1	5.41997393724461140607	3.61331595816307427071	1.80665797908153713536
	364	1	5.41997393724461140607	5.41997393724461140607	0.00000000000000000000
	365	1	3.61331595816307427071	3.61331595816307427071	3.61331595816307427071
	366	1	3.61331595816307427071	5.41997393724461140607	5.41997393724461140607
	367	1	5.41997393724461140607	3.61331595816307427071	5.41997393724461140607
	368	1	5.41997393724461140607	5.41997393724461140607	3.61331595816307427071
	369	1	3.61331595816307427071	3.61331595816307427071	7.22663191632614854143
	370	1	3.61331595816307427071	5.41997393724461140607	9.03328989540768567679
	371	1	5.41997393724461140607	3.61331595816307427071	9.03328989540768567679
	372	1	5.41997393724461140607	5.41997393724461140607	7.22663191632614854143
	373	1	3.61331595816307427071	3.61331595816307427071	10.83994787448922281214
	374	1	3.61331595816307427071	5.41997393724461140607	12.64660585357075994750
	375	1	5.41997393724461140607	3.61331595816307427071	12.64660585357075994750
	376	1	5.41997393724461140607	5.41997393724461140607	10.83994787448922281214
	377	1	3.61331595816307427071	3.61331595816307427071	14.45326383265229708286
	378	1	3.61331595816307427071	5.41997393724461140607	16.25992181173383244186
	379	1	5.41997393724461140607	3.61331595816307427071	16.25992181173383244186
	380	1	5.41997393724461140607	5.41997393724461140607	14.45326383265229708286
	381	1	3.61331595816307427071	3.61331595816307427071	18.06657979081537135357
	382	1	3.61331595816307427071	5.41997393724461140607	19.87323776989691026529
	383	1	5.41997393724461140607	3.61331595816307427071	19.87323776989691026529
	384	1	5.41997393724461140607	5.41997393724461140607	18.06657979081537135357
	385	1	3.61331595816307427071	3.61331595816307427071	21.67989574897844562429
	386	1	3.61331595816307427071	5.41997393724461140607	23.48655372805998098329
	387	1	5.41997393724461140607	3.61331595816307427071	23.48655372805998098329
	388	1	5.41997393724461140607	5.41997393724461140607	21.67989574897844562429