 
 64 atoms 
 
 1 atom types
 0.00000000000000000000 10.89760166263206109249 xlo xhi
 0.00000000000000000000 10.85418492294030023970 ylo yhi
 0.00000000000000000000 10.85418492294030023970 zlo zhi
 0.00000000000000066463 0.00000000000000066463 0.00000000000000066463 xy xz yz
 
 Atoms 
 
	1	1	0.00000000000000000000	0.00000000000000000000	0.00000000000000000000
	2	1	2.71354623073507505993	2.71354623073507550401	0.00000000000000000000
	3	1	2.71354623073507505993	0.00000000000000016616	2.71354623073507550401
	4	1	0.00000000000000033231	2.71354623073507550401	2.71354623073507550401
	5	1	1.35677311536753752996	1.35677311536753775201	1.35677311536753775201
	6	1	4.07031934610261281193	4.07031934610261370011	1.35677311536753775201
	7	1	4.07031934610261281193	1.35677311536753797405	4.07031934610261370011
	8	1	1.35677311536753797405	4.07031934610261370011	4.07031934610261370011
	9	1	0.00000000000000033231	0.00000000000000033231	5.42709246147015100803
	10	1	2.71354623073507550401	2.71354623073507594810	5.42709246147015100803
	11	1	2.71354623073507550401	0.00000000000000049847	8.14063869220522740022
	12	1	0.00000000000000066463	2.71354623073507594810	8.14063869220522740022
	13	1	1.35677311536753797405	1.35677311536753819610	6.78386557683768920413
	14	1	4.07031934610261281193	4.07031934610261370011	6.78386557683768920413
	15	1	4.07031934610261370011	1.35677311536753841814	9.49741180757276559632
	16	1	1.35677311536753841814	4.07031934610261458829	9.49741180757276559632
	17	1	0.00000000000000033231	5.42709246147015100803	0.00000000000000000000
	18	1	2.71354623073507550401	8.14063869220522740022	0.00000000000000000000
	19	1	2.71354623073507550401	5.42709246147015100803	2.71354623073507550401
	20	1	0.00000000000000066463	8.14063869220522740022	2.71354623073507550401
	21	1	1.35677311536753797405	6.78386557683768920413	1.35677311536753775201
	22	1	4.07031934610261370011	9.49741180757276559632	1.35677311536753775201
	23	1	4.07031934610261281193	6.78386557683768920413	4.07031934610261370011
	24	1	1.35677311536753841814	9.49741180757276559632	4.07031934610261370011
	25	1	0.00000000000000066463	5.42709246147015100803	5.42709246147015100803
	26	1	2.71354623073507594810	8.14063869220522740022	5.42709246147015100803
	27	1	2.71354623073507594810	5.42709246147015189621	8.14063869220522740022
	28	1	0.00000000000000099694	8.14063869220522740022	8.14063869220522740022
	29	1	1.35677311536753841814	6.78386557683768920413	6.78386557683768920413
	30	1	4.07031934610261370011	9.49741180757276559632	6.78386557683768920413
	31	1	4.07031934610261370011	6.78386557683769009230	9.49741180757276559632
	32	1	1.35677311536753886223	9.49741180757276559632	9.49741180757276559632
	33	1	5.42709246147015011985	0.00000000000000000000	0.00000000000000000000
	34	1	8.14063869220522562387	2.71354623073507550401	0.00000000000000000000
	35	1	8.14063869220522562387	0.00000000000000016616	2.71354623073507550401
	36	1	5.42709246147015011985	2.71354623073507550401	2.71354623073507550401
	37	1	6.78386557683768742777	1.35677311536753775201	1.35677311536753775201
	38	1	9.49741180757276381996	4.07031934610261370011	1.35677311536753775201
	39	1	9.49741180757276381996	1.35677311536753797405	4.07031934610261370011
	40	1	6.78386557683768742777	4.07031934610261370011	4.07031934610261370011
	41	1	5.42709246147015011985	0.00000000000000033231	5.42709246147015100803
	42	1	8.14063869220522562387	2.71354623073507594810	5.42709246147015100803
	43	1	8.14063869220522562387	0.00000000000000049847	8.14063869220522740022
	44	1	5.42709246147015100803	2.71354623073507594810	8.14063869220522740022
	45	1	6.78386557683768742777	1.35677311536753819610	6.78386557683768920413
	46	1	9.49741180757276381996	4.07031934610261370011	6.78386557683768920413
	47	1	9.49741180757276381996	1.35677311536753841814	9.49741180757276559632
	48	1	6.78386557683768831595	4.07031934610261458829	9.49741180757276559632
	49	1	5.42709246147015011985	5.42709246147015100803	0.00000000000000000000
	50	1	8.14063869220522562387	8.14063869220522740022	0.00000000000000000000
	51	1	8.14063869220522562387	5.42709246147015100803	2.71354623073507550401
	52	1	5.42709246147015100803	8.14063869220522740022	2.71354623073507550401
	53	1	6.78386557683768742777	6.78386557683768920413	1.35677311536753775201
	54	1	9.49741180757276381996	9.49741180757276559632	1.35677311536753775201
	55	1	9.49741180757276381996	6.78386557683768920413	4.07031934610261370011
	56	1	6.78386557683768831595	9.49741180757276559632	4.07031934610261370011
	57	1	5.42709246147015011985	5.42709246147015100803	5.42709246147015100803
	58	1	8.14063869220522562387	8.14063869220522740022	5.42709246147015100803
	59	1	8.14063869220522562387	5.42709246147015189621	8.14063869220522740022
	60	1	5.42709246147015189621	8.14063869220522740022	8.14063869220522740022
	61	1	6.78386557683768742777	6.78386557683768920413	6.78386557683768920413
	62	1	9.49741180757276381996	9.49741180757276559632	6.78386557683768920413
	63	1	9.49741180757276381996	6.78386557683769009230	9.49741180757276559632
	64	1	6.78386557683768920413	9.49741180757276559632	9.49741180757276559632
