 
 192 atoms 
 
 1 atom types
 0.00000000000000000000 17.08411531864771504274 xlo xhi
 0.00000000000000000000 39.45407431235147299731 ylo yhi
 0.00000000000000000000 6.04014689619438716051 zlo zhi
 
 Atoms 
 
	1	1	0.00000000000000000000	0.00000000000000000000	0.00000000000000000000
	2	1	4.27102882966192876069	2.46587964452196706233	0.00000000000000000000
	3	1	2.84735255310795265515	0.00000000000000000000	1.00669114936573111940
	4	1	7.11838138276988185993	2.46587964452196706233	1.00669114936573111940
	5	1	1.42367627655397632758	2.46587964452196706233	2.01338229873146223881
	6	1	5.69470510621590531031	0.00000000000000000000	2.01338229873146223881
	7	1	0.00000000000000000000	0.00000000000000000000	3.02007344809719358025
	8	1	4.27102882966192876069	2.46587964452196706233	3.02007344809719358025
	9	1	2.84735255310795265515	0.00000000000000000000	4.02676459746292447761
	10	1	7.11838138276988185993	2.46587964452196706233	4.02676459746292447761
	11	1	1.42367627655397632758	2.46587964452196706233	5.03345574682865581906
	12	1	5.69470510621590531031	0.00000000000000000000	5.03345574682865581906
	13	1	0.00000000000000000000	4.93175928904393412466	0.00000000000000000000
	14	1	4.27102882966192876069	7.39763893356590074291	0.00000000000000000000
	15	1	2.84735255310795265515	4.93175928904393412466	1.00669114936573111940
	16	1	7.11838138276988185993	7.39763893356590074291	1.00669114936573111940
	17	1	1.42367627655397632758	7.39763893356590074291	2.01338229873146223881
	18	1	5.69470510621590531031	4.93175928904393412466	2.01338229873146223881
	19	1	0.00000000000000000000	4.93175928904393412466	3.02007344809719358025
	20	1	4.27102882966192876069	7.39763893356590074291	3.02007344809719358025
	21	1	2.84735255310795265515	4.93175928904393412466	4.02676459746292447761
	22	1	7.11838138276988185993	7.39763893356590074291	4.02676459746292447761
	23	1	1.42367627655397632758	7.39763893356590074291	5.03345574682865581906
	24	1	5.69470510621590531031	4.93175928904393412466	5.03345574682865581906
	25	1	0.00000000000000000000	9.86351857808786824933	0.00000000000000000000
	26	1	4.27102882966192876069	12.32939822260983575575	0.00000000000000000000
	27	1	2.84735255310795265515	9.86351857808786824933	1.00669114936573111940
	28	1	7.11838138276988185993	12.32939822260983575575	1.00669114936573111940
	29	1	1.42367627655397632758	12.32939822260983575575	2.01338229873146223881
	30	1	5.69470510621590531031	9.86351857808786824933	2.01338229873146223881
	31	1	0.00000000000000000000	9.86351857808786824933	3.02007344809719358025
	32	1	4.27102882966192876069	12.32939822260983575575	3.02007344809719358025
	33	1	2.84735255310795265515	9.86351857808786824933	4.02676459746292447761
	34	1	7.11838138276988185993	12.32939822260983575575	4.02676459746292447761
	35	1	1.42367627655397632758	12.32939822260983575575	5.03345574682865581906
	36	1	5.69470510621590531031	9.86351857808786824933	5.03345574682865581906
	37	1	0.00000000000000000000	14.79527786713180148581	0.00000000000000000000
	38	1	4.27102882966192876069	17.26115751165376721588	0.00000000000000000000
	39	1	2.84735255310795265515	14.79527786713180148581	1.00669114936573111940
	40	1	7.11838138276988185993	17.26115751165376721588	1.00669114936573111940
	41	1	1.42367627655397632758	17.26115751165376721588	2.01338229873146223881
	42	1	5.69470510621590531031	14.79527786713180148581	2.01338229873146223881
	43	1	0.00000000000000000000	14.79527786713180148581	3.02007344809719358025
	44	1	4.27102882966192876069	17.26115751165376721588	3.02007344809719358025
	45	1	2.84735255310795265515	14.79527786713180148581	4.02676459746292447761
	46	1	7.11838138276988185993	17.26115751165376721588	4.02676459746292447761
	47	1	1.42367627655397632758	17.26115751165376721588	5.03345574682865581906
	48	1	5.69470510621590531031	14.79527786713180148581	5.03345574682865581906
	49	1	0.00000000000000000000	19.72703715617573649865	0.00000000000000000000
	50	1	4.27102882966192876069	22.19291680069770222872	0.00000000000000000000
	51	1	2.84735255310795265515	19.72703715617573649865	1.00669114936573111940
	52	1	7.11838138276988185993	22.19291680069770222872	1.00669114936573111940
	53	1	1.42367627655397632758	22.19291680069770222872	2.01338229873146223881
	54	1	5.69470510621590531031	19.72703715617573649865	2.01338229873146223881
	55	1	0.00000000000000000000	19.72703715617573649865	3.02007344809719358025
	56	1	4.27102882966192876069	22.19291680069770222872	3.02007344809719358025
	57	1	2.84735255310795265515	19.72703715617573649865	4.02676459746292447761
	58	1	7.11838138276988185993	22.19291680069770222872	4.02676459746292447761
	59	1	1.42367627655397632758	22.19291680069770222872	5.03345574682865581906
	60	1	5.69470510621590531031	19.72703715617573649865	5.03345574682865581906
	61	1	0.00000000000000000000	24.65879644521967151150	0.00000000000000000000
	62	1	4.27102882966192876069	27.12467608974163724156	0.00000000000000000000
	63	1	2.84735255310795265515	24.65879644521967151150	1.00669114936573111940
	64	1	7.11838138276988185993	27.12467608974163724156	1.00669114936573111940
	65	1	1.42367627655397632758	27.12467608974163724156	2.01338229873146223881
	66	1	5.69470510621590531031	24.65879644521967151150	2.01338229873146223881
	67	1	0.00000000000000000000	24.65879644521967151150	3.02007344809719358025
	68	1	4.27102882966192876069	27.12467608974163724156	3.02007344809719358025
	69	1	2.84735255310795265515	24.65879644521967151150	4.02676459746292447761
	70	1	7.11838138276988185993	27.12467608974163724156	4.02676459746292447761
	71	1	1.42367627655397632758	27.12467608974163724156	5.03345574682865581906
	72	1	5.69470510621590531031	24.65879644521967151150	5.03345574682865581906
	73	1	0.00000000000000000000	29.59055573426360297162	0.00000000000000000000
	74	1	4.27102882966192876069	32.05643537878557225440	0.00000000000000000000
	75	1	2.84735255310795265515	29.59055573426360297162	1.00669114936573111940
	76	1	7.11838138276988185993	32.05643537878557225440	1.00669114936573111940
	77	1	1.42367627655397632758	32.05643537878557225440	2.01338229873146223881
	78	1	5.69470510621590531031	29.59055573426360297162	2.01338229873146223881
	79	1	0.00000000000000000000	29.59055573426360297162	3.02007344809719358025
	80	1	4.27102882966192876069	32.05643537878557225440	3.02007344809719358025
	81	1	2.84735255310795265515	29.59055573426360297162	4.02676459746292447761
	82	1	7.11838138276988185993	32.05643537878557225440	4.02676459746292447761
	83	1	1.42367627655397632758	32.05643537878557225440	5.03345574682865581906
	84	1	5.69470510621590531031	29.59055573426360297162	5.03345574682865581906
	85	1	0.00000000000000000000	34.52231502330754153718	0.00000000000000000000
	86	1	4.27102882966192876069	36.98819466782951081996	0.00000000000000000000
	87	1	2.84735255310795265515	34.52231502330754153718	1.00669114936573111940
	88	1	7.11838138276988185993	36.98819466782951081996	1.00669114936573111940
	89	1	1.42367627655397632758	36.98819466782951081996	2.01338229873146223881
	90	1	5.69470510621590531031	34.52231502330754153718	2.01338229873146223881
	91	1	0.00000000000000000000	34.52231502330754153718	3.02007344809719358025
	92	1	4.27102882966192876069	36.98819466782951081996	3.02007344809719358025
	93	1	2.84735255310795265515	34.52231502330754153718	4.02676459746292447761
	94	1	7.11838138276988185993	36.98819466782951081996	4.02676459746292447761
	95	1	1.42367627655397632758	36.98819466782951081996	5.03345574682865581906
	96	1	5.69470510621590531031	34.52231502330754153718	5.03345574682865581906
	97	1	8.54205765932385752137	0.00000000000000000000	0.00000000000000000000
	98	1	12.81308648898578539388	2.46587964452196706233	0.00000000000000000000
	99	1	11.38941021243181062061	0.00000000000000000000	1.00669114936573111940
	100	1	15.66043904209373849312	2.46587964452196706233	1.00669114936573111940
	101	1	9.96573393587783407099	2.46587964452196706233	2.01338229873146223881
	102	1	14.23676276553976194350	0.00000000000000000000	2.01338229873146223881
	103	1	8.54205765932385752137	0.00000000000000000000	3.02007344809719358025
	104	1	12.81308648898578539388	2.46587964452196706233	3.02007344809719358025
	105	1	11.38941021243181062061	0.00000000000000000000	4.02676459746292447761
	106	1	15.66043904209373849312	2.46587964452196706233	4.02676459746292447761
	107	1	9.96573393587783407099	2.46587964452196706233	5.03345574682865581906
	108	1	14.23676276553976194350	0.00000000000000000000	5.03345574682865581906
	109	1	8.54205765932385752137	4.93175928904393412466	0.00000000000000000000
	110	1	12.81308648898578539388	7.39763893356590074291	0.00000000000000000000
	111	1	11.38941021243181062061	4.93175928904393412466	1.00669114936573111940
	112	1	15.66043904209373849312	7.39763893356590074291	1.00669114936573111940
	113	1	9.96573393587783407099	7.39763893356590074291	2.01338229873146223881
	114	1	14.23676276553976194350	4.93175928904393412466	2.01338229873146223881
	115	1	8.54205765932385752137	4.93175928904393412466	3.02007344809719358025
	116	1	12.81308648898578539388	7.39763893356590074291	3.02007344809719358025
	117	1	11.38941021243181062061	4.93175928904393412466	4.02676459746292447761
	118	1	15.66043904209373849312	7.39763893356590074291	4.02676459746292447761
	119	1	9.96573393587783407099	7.39763893356590074291	5.03345574682865581906
	120	1	14.23676276553976194350	4.93175928904393412466	5.03345574682865581906
	121	1	8.54205765932385752137	9.86351857808786824933	0.00000000000000000000
	122	1	12.81308648898578539388	12.32939822260983575575	0.00000000000000000000
	123	1	11.38941021243181062061	9.86351857808786824933	1.00669114936573111940
	124	1	15.66043904209373849312	12.32939822260983575575	1.00669114936573111940
	125	1	9.96573393587783407099	12.32939822260983575575	2.01338229873146223881
	126	1	14.23676276553976194350	9.86351857808786824933	2.01338229873146223881
	127	1	8.54205765932385752137	9.86351857808786824933	3.02007344809719358025
	128	1	12.81308648898578539388	12.32939822260983575575	3.02007344809719358025
	129	1	11.38941021243181062061	9.86351857808786824933	4.02676459746292447761
	130	1	15.66043904209373849312	12.32939822260983575575	4.02676459746292447761
	131	1	9.96573393587783407099	12.32939822260983575575	5.03345574682865581906
	132	1	14.23676276553976194350	9.86351857808786824933	5.03345574682865581906
	133	1	8.54205765932385752137	14.79527786713180148581	0.00000000000000000000
	134	1	12.81308648898578539388	17.26115751165376721588	0.00000000000000000000
	135	1	11.38941021243181062061	14.79527786713180148581	1.00669114936573111940
	136	1	15.66043904209373849312	17.26115751165376721588	1.00669114936573111940
	137	1	9.96573393587783407099	17.26115751165376721588	2.01338229873146223881
	138	1	14.23676276553976194350	14.79527786713180148581	2.01338229873146223881
	139	1	8.54205765932385752137	14.79527786713180148581	3.02007344809719358025
	140	1	12.81308648898578539388	17.26115751165376721588	3.02007344809719358025
	141	1	11.38941021243181062061	14.79527786713180148581	4.02676459746292447761
	142	1	15.66043904209373849312	17.26115751165376721588	4.02676459746292447761
	143	1	9.96573393587783407099	17.26115751165376721588	5.03345574682865581906
	144	1	14.23676276553976194350	14.79527786713180148581	5.03345574682865581906
	145	1	8.54205765932385752137	19.72703715617573649865	0.00000000000000000000
	146	1	12.81308648898578539388	22.19291680069770222872	0.00000000000000000000
	147	1	11.38941021243181062061	19.72703715617573649865	1.00669114936573111940
	148	1	15.66043904209373849312	22.19291680069770222872	1.00669114936573111940
	149	1	9.96573393587783407099	22.19291680069770222872	2.01338229873146223881
	150	1	14.23676276553976194350	19.72703715617573649865	2.01338229873146223881
	151	1	8.54205765932385752137	19.72703715617573649865	3.02007344809719358025
	152	1	12.81308648898578539388	22.19291680069770222872	3.02007344809719358025
	153	1	11.38941021243181062061	19.72703715617573649865	4.02676459746292447761
	154	1	15.66043904209373849312	22.19291680069770222872	4.02676459746292447761
	155	1	9.96573393587783407099	22.19291680069770222872	5.03345574682865581906
	156	1	14.23676276553976194350	19.72703715617573649865	5.03345574682865581906
	157	1	8.54205765932385752137	24.65879644521967151150	0.00000000000000000000
	158	1	12.81308648898578539388	27.12467608974163724156	0.00000000000000000000
	159	1	11.38941021243181062061	24.65879644521967151150	1.00669114936573111940
	160	1	15.66043904209373849312	27.12467608974163724156	1.00669114936573111940
	161	1	9.96573393587783407099	27.12467608974163724156	2.01338229873146223881
	162	1	14.23676276553976194350	24.65879644521967151150	2.01338229873146223881
	163	1	8.54205765932385752137	24.65879644521967151150	3.02007344809719358025
	164	1	12.81308648898578539388	27.12467608974163724156	3.02007344809719358025
	165	1	11.38941021243181062061	24.65879644521967151150	4.02676459746292447761
	166	1	15.66043904209373849312	27.12467608974163724156	4.02676459746292447761
	167	1	9.96573393587783407099	27.12467608974163724156	5.03345574682865581906
	168	1	14.23676276553976194350	24.65879644521967151150	5.03345574682865581906
	169	1	8.54205765932385752137	29.59055573426360297162	0.00000000000000000000
	170	1	12.81308648898578539388	32.05643537878557225440	0.00000000000000000000
	171	1	11.38941021243181062061	29.59055573426360297162	1.00669114936573111940
	172	1	15.66043904209373849312	32.05643537878557225440	1.00669114936573111940
	173	1	9.96573393587783407099	32.05643537878557225440	2.01338229873146223881
	174	1	14.23676276553976194350	29.59055573426360297162	2.01338229873146223881
	175	1	8.54205765932385752137	29.59055573426360297162	3.02007344809719358025
	176	1	12.81308648898578539388	32.05643537878557225440	3.02007344809719358025
	177	1	11.38941021243181062061	29.59055573426360297162	4.02676459746292447761
	178	1	15.66043904209373849312	32.05643537878557225440	4.02676459746292447761
	179	1	9.96573393587783407099	32.05643537878557225440	5.03345574682865581906
	180	1	14.23676276553976194350	29.59055573426360297162	5.03345574682865581906
	181	1	8.54205765932385752137	34.52231502330754153718	0.00000000000000000000
	182	1	12.81308648898578539388	36.98819466782951081996	0.00000000000000000000
	183	1	11.38941021243181062061	34.52231502330754153718	1.00669114936573111940
	184	1	15.66043904209373849312	36.98819466782951081996	1.00669114936573111940
	185	1	9.96573393587783407099	36.98819466782951081996	2.01338229873146223881
	186	1	14.23676276553976194350	34.52231502330754153718	2.01338229873146223881
	187	1	8.54205765932385752137	34.52231502330754153718	3.02007344809719358025
	188	1	12.81308648898578539388	36.98819466782951081996	3.02007344809719358025
	189	1	11.38941021243181062061	34.52231502330754153718	4.02676459746292447761
	190	1	15.66043904209373849312	36.98819466782951081996	4.02676459746292447761
	191	1	9.96573393587783407099	36.98819466782951081996	5.03345574682865581906
	192	1	14.23676276553976194350	34.52231502330754153718	5.03345574682865581906
