ITEM: TIMESTEP
0
ITEM: NUMBER OF ATOMS
192
ITEM: BOX BOUNDS pp ss pp
0 17.0841
-0.00394541 36.9921
0 6.04015
ITEM: ATOMS id type x y z 
1 1 0 0 0 
3 1 2.84735 0 1.00669 
5 1 1.42368 2.46588 2.01338 
7 1 0 0 3.02007 
9 1 2.84735 0 4.02676 
11 1 1.42368 2.46588 5.03346 
2 1 4.27103 2.46588 0 
6 1 5.69471 0 2.01338 
8 1 4.27103 2.46588 3.02007 
12 1 5.69471 0 5.03346 
4 1 7.11838 2.46588 1.00669 
10 1 7.11838 2.46588 4.02676 
97 1 8.54206 0 0 
101 1 9.96573 2.46588 2.01338 
103 1 8.54206 0 3.02007 
107 1 9.96573 2.46588 5.03346 
98 1 12.8131 2.46588 0 
99 1 11.3894 0 1.00669 
104 1 12.8131 2.46588 3.02007 
105 1 11.3894 0 4.02676 
100 1 15.6604 2.46588 1.00669 
102 1 14.2368 0 2.01338 
106 1 15.6604 2.46588 4.02676 
108 1 14.2368 0 5.03346 
13 1 0 4.93176 0 
15 1 2.84735 4.93176 1.00669 
19 1 0 4.93176 3.02007 
21 1 2.84735 4.93176 4.02676 
18 1 5.69471 4.93176 2.01338 
24 1 5.69471 4.93176 5.03346 
109 1 8.54206 4.93176 0 
115 1 8.54206 4.93176 3.02007 
111 1 11.3894 4.93176 1.00669 
117 1 11.3894 4.93176 4.02676 
114 1 14.2368 4.93176 2.01338 
120 1 14.2368 4.93176 5.03346 
17 1 1.42368 7.39764 2.01338 
23 1 1.42368 7.39764 5.03346 
25 1 0 9.86352 0 
27 1 2.84735 9.86352 1.00669 
31 1 0 9.86352 3.02007 
33 1 2.84735 9.86352 4.02676 
14 1 4.27103 7.39764 0 
20 1 4.27103 7.39764 3.02007 
30 1 5.69471 9.86352 2.01338 
36 1 5.69471 9.86352 5.03346 
16 1 7.11838 7.39764 1.00669 
22 1 7.11838 7.39764 4.02676 
113 1 9.96573 7.39764 2.01338 
119 1 9.96573 7.39764 5.03346 
121 1 8.54206 9.86352 0 
127 1 8.54206 9.86352 3.02007 
110 1 12.8131 7.39764 0 
116 1 12.8131 7.39764 3.02007 
123 1 11.3894 9.86352 1.00669 
129 1 11.3894 9.86352 4.02676 
112 1 15.6604 7.39764 1.00669 
118 1 15.6604 7.39764 4.02676 
126 1 14.2368 9.86352 2.01338 
132 1 14.2368 9.86352 5.03346 
29 1 1.42368 12.3294 2.01338 
35 1 1.42368 12.3294 5.03346 
26 1 4.27103 12.3294 0 
32 1 4.27103 12.3294 3.02007 
28 1 7.11838 12.3294 1.00669 
34 1 7.11838 12.3294 4.02676 
125 1 9.96573 12.3294 2.01338 
131 1 9.96573 12.3294 5.03346 
122 1 12.8131 12.3294 0 
128 1 12.8131 12.3294 3.02007 
124 1 15.6604 12.3294 1.00669 
130 1 15.6604 12.3294 4.02676 
37 1 0 14.7953 0 
39 1 2.84735 14.7953 1.00669 
41 1 1.42368 17.2612 2.01338 
43 1 0 14.7953 3.02007 
45 1 2.84735 14.7953 4.02676 
47 1 1.42368 17.2612 5.03346 
38 1 4.27103 17.2612 0 
42 1 5.69471 14.7953 2.01338 
44 1 4.27103 17.2612 3.02007 
48 1 5.69471 14.7953 5.03346 
40 1 7.11838 17.2612 1.00669 
46 1 7.11838 17.2612 4.02676 
133 1 8.54206 14.7953 0 
137 1 9.96573 17.2612 2.01338 
139 1 8.54206 14.7953 3.02007 
143 1 9.96573 17.2612 5.03346 
134 1 12.8131 17.2612 0 
135 1 11.3894 14.7953 1.00669 
140 1 12.8131 17.2612 3.02007 
141 1 11.3894 14.7953 4.02676 
136 1 15.6604 17.2612 1.00669 
138 1 14.2368 14.7953 2.01338 
142 1 15.6604 17.2612 4.02676 
144 1 14.2368 14.7953 5.03346 
49 1 0 19.727 3.02007 
51 1 2.84735 19.727 4.02676 
53 1 1.42368 22.1929 5.03346 
55 1 0 19.727 6.04015 
57 1 2.84735 19.727 1.00669 
59 1 1.42368 22.1929 2.01338 
50 1 4.27103 22.1929 3.02007 
54 1 5.69471 19.727 5.03346 
56 1 4.27103 22.1929 6.04015 
60 1 5.69471 19.727 2.01338 
52 1 7.11838 22.1929 4.02676 
58 1 7.11838 22.1929 1.00669 
145 1 8.54206 19.727 3.02007 
149 1 9.96573 22.1929 5.03346 
151 1 8.54206 19.727 6.04015 
155 1 9.96573 22.1929 2.01338 
146 1 12.8131 22.1929 3.02007 
147 1 11.3894 19.727 4.02676 
152 1 12.8131 22.1929 6.04015 
153 1 11.3894 19.727 1.00669 
148 1 15.6604 22.1929 4.02676 
150 1 14.2368 19.727 5.03346 
154 1 15.6604 22.1929 1.00669 
156 1 14.2368 19.727 2.01338 
61 1 0 24.6588 3.02007 
63 1 2.84735 24.6588 4.02676 
67 1 0 24.6588 6.04015 
69 1 2.84735 24.6588 1.00669 
66 1 5.69471 24.6588 5.03346 
72 1 5.69471 24.6588 2.01338 
157 1 8.54206 24.6588 3.02007 
163 1 8.54206 24.6588 6.04015 
159 1 11.3894 24.6588 4.02676 
165 1 11.3894 24.6588 1.00669 
162 1 14.2368 24.6588 5.03346 
168 1 14.2368 24.6588 2.01338 
65 1 1.42368 27.1247 5.03346 
71 1 1.42368 27.1247 2.01338 
73 1 0 29.5906 3.02007 
75 1 2.84735 29.5906 4.02676 
79 1 0 29.5906 6.04015 
81 1 2.84735 29.5906 1.00669 
62 1 4.27103 27.1247 3.02007 
68 1 4.27103 27.1247 6.04015 
78 1 5.69471 29.5906 5.03346 
84 1 5.69471 29.5906 2.01338 
64 1 7.11838 27.1247 4.02676 
70 1 7.11838 27.1247 1.00669 
161 1 9.96573 27.1247 5.03346 
167 1 9.96573 27.1247 2.01338 
169 1 8.54206 29.5906 3.02007 
175 1 8.54206 29.5906 6.04015 
158 1 12.8131 27.1247 3.02007 
164 1 12.8131 27.1247 6.04015 
171 1 11.3894 29.5906 4.02676 
177 1 11.3894 29.5906 1.00669 
160 1 15.6604 27.1247 4.02676 
166 1 15.6604 27.1247 1.00669 
174 1 14.2368 29.5906 5.03346 
180 1 14.2368 29.5906 2.01338 
77 1 1.42368 32.0564 5.03346 
83 1 1.42368 32.0564 2.01338 
74 1 4.27103 32.0564 3.02007 
80 1 4.27103 32.0564 6.04015 
76 1 7.11838 32.0564 4.02676 
82 1 7.11838 32.0564 1.00669 
173 1 9.96573 32.0564 5.03346 
179 1 9.96573 32.0564 2.01338 
170 1 12.8131 32.0564 3.02007 
176 1 12.8131 32.0564 6.04015 
172 1 15.6604 32.0564 4.02676 
178 1 15.6604 32.0564 1.00669 
85 1 0 34.5223 3.02007 
87 1 2.84735 34.5223 4.02676 
89 1 1.42368 36.9882 5.03346 
91 1 0 34.5223 6.04015 
93 1 2.84735 34.5223 1.00669 
95 1 1.42368 36.9882 2.01338 
86 1 4.27103 36.9882 3.02007 
90 1 5.69471 34.5223 5.03346 
92 1 4.27103 36.9882 6.04015 
96 1 5.69471 34.5223 2.01338 
88 1 7.11838 36.9882 4.02676 
94 1 7.11838 36.9882 1.00669 
181 1 8.54206 34.5223 3.02007 
185 1 9.96573 36.9882 5.03346 
187 1 8.54206 34.5223 6.04015 
191 1 9.96573 36.9882 2.01338 
182 1 12.8131 36.9882 3.02007 
183 1 11.3894 34.5223 4.02676 
188 1 12.8131 36.9882 6.04015 
189 1 11.3894 34.5223 1.00669 
184 1 15.6604 36.9882 4.02676 
186 1 14.2368 34.5223 5.03346 
190 1 15.6604 36.9882 1.00669 
192 1 14.2368 34.5223 2.01338 
ITEM: TIMESTEP
1
ITEM: NUMBER OF ATOMS
192
ITEM: BOX BOUNDS pp ss pp
0 17.0841
-0.00394541 36.9921
0 6.04015
ITEM: ATOMS id type x y z 
1 1 0 0 0 
3 1 2.84735 0 1.00669 
5 1 1.42368 2.46588 2.01338 
7 1 0 0 3.02007 
9 1 2.84735 0 4.02676 
11 1 1.42368 2.46588 5.03346 
2 1 4.27103 2.46588 0 
6 1 5.69471 0 2.01338 
8 1 4.27103 2.46588 3.02007 
12 1 5.69471 0 5.03346 
4 1 7.11838 2.46588 1.00669 
10 1 7.11838 2.46588 4.02676 
97 1 8.54206 0 0 
101 1 9.96573 2.46588 2.01338 
103 1 8.54206 0 3.02007 
107 1 9.96573 2.46588 5.03346 
98 1 12.8131 2.46588 0 
99 1 11.3894 0 1.00669 
104 1 12.8131 2.46588 3.02007 
105 1 11.3894 0 4.02676 
100 1 15.6604 2.46588 1.00669 
102 1 14.2368 0 2.01338 
106 1 15.6604 2.46588 4.02676 
108 1 14.2368 0 5.03346 
13 1 0 4.93176 0 
15 1 2.84735 4.93176 1.00669 
19 1 0 4.93176 3.02007 
21 1 2.84735 4.93176 4.02676 
18 1 5.69471 4.93176 2.01338 
24 1 5.69471 4.93176 5.03346 
109 1 8.54206 4.93176 0 
115 1 8.54206 4.93176 3.02007 
111 1 11.3894 4.93176 1.00669 
117 1 11.3894 4.93176 4.02676 
114 1 14.2368 4.93176 2.01338 
120 1 14.2368 4.93176 5.03346 
17 1 1.42368 7.39764 2.01338 
23 1 1.42368 7.39764 5.03346 
25 1 0 9.86352 0 
27 1 2.84735 9.86352 1.00669 
31 1 0 9.86352 3.02007 
33 1 2.84735 9.86352 4.02676 
14 1 4.27103 7.39764 0 
20 1 4.27103 7.39764 3.02007 
30 1 5.69471 9.86352 2.01338 
36 1 5.69471 9.86352 5.03346 
16 1 7.11838 7.39764 1.00669 
22 1 7.11838 7.39764 4.02676 
113 1 9.96573 7.39764 2.01338 
119 1 9.96573 7.39764 5.03346 
121 1 8.54206 9.86352 0 
127 1 8.54206 9.86352 3.02007 
110 1 12.8131 7.39764 0 
116 1 12.8131 7.39764 3.02007 
123 1 11.3894 9.86352 1.00669 
129 1 11.3894 9.86352 4.02676 
112 1 15.6604 7.39764 1.00669 
118 1 15.6604 7.39764 4.02676 
126 1 14.2368 9.86352 2.01338 
132 1 14.2368 9.86352 5.03346 
29 1 1.42368 12.3294 2.01338 
35 1 1.42368 12.3294 5.03346 
26 1 4.27103 12.3294 0 
32 1 4.27103 12.3294 3.02007 
28 1 7.11838 12.3294 1.00669 
34 1 7.11838 12.3294 4.02676 
125 1 9.96573 12.3294 2.01338 
131 1 9.96573 12.3294 5.03346 
122 1 12.8131 12.3294 0 
128 1 12.8131 12.3294 3.02007 
124 1 15.6604 12.3294 1.00669 
130 1 15.6604 12.3294 4.02676 
37 1 0 14.7953 0 
39 1 2.84735 14.7953 1.00669 
41 1 1.42368 17.2612 2.01338 
43 1 0 14.7953 3.02007 
45 1 2.84735 14.7953 4.02676 
47 1 1.42368 17.2612 5.03346 
38 1 4.27103 17.2612 0 
42 1 5.69471 14.7953 2.01338 
44 1 4.27103 17.2612 3.02007 
48 1 5.69471 14.7953 5.03346 
40 1 7.11838 17.2612 1.00669 
46 1 7.11838 17.2612 4.02676 
133 1 8.54206 14.7953 0 
137 1 9.96573 17.2612 2.01338 
139 1 8.54206 14.7953 3.02007 
143 1 9.96573 17.2612 5.03346 
134 1 12.8131 17.2612 0 
135 1 11.3894 14.7953 1.00669 
140 1 12.8131 17.2612 3.02007 
141 1 11.3894 14.7953 4.02676 
136 1 15.6604 17.2612 1.00669 
138 1 14.2368 14.7953 2.01338 
142 1 15.6604 17.2612 4.02676 
144 1 14.2368 14.7953 5.03346 
49 1 0 19.727 3.02007 
51 1 2.84735 19.727 4.02676 
53 1 1.42368 22.1929 5.03346 
55 1 0 19.727 6.04015 
57 1 2.84735 19.727 1.00669 
59 1 1.42368 22.1929 2.01338 
50 1 4.27103 22.1929 3.02007 
54 1 5.69471 19.727 5.03346 
56 1 4.27103 22.1929 6.04015 
60 1 5.69471 19.727 2.01338 
52 1 7.11838 22.1929 4.02676 
58 1 7.11838 22.1929 1.00669 
145 1 8.54206 19.727 3.02007 
149 1 9.96573 22.1929 5.03346 
151 1 8.54206 19.727 6.04015 
155 1 9.96573 22.1929 2.01338 
146 1 12.8131 22.1929 3.02007 
147 1 11.3894 19.727 4.02676 
152 1 12.8131 22.1929 6.04015 
153 1 11.3894 19.727 1.00669 
148 1 15.6604 22.1929 4.02676 
150 1 14.2368 19.727 5.03346 
154 1 15.6604 22.1929 1.00669 
156 1 14.2368 19.727 2.01338 
61 1 0 24.6588 3.02007 
63 1 2.84735 24.6588 4.02676 
67 1 0 24.6588 6.04015 
69 1 2.84735 24.6588 1.00669 
66 1 5.69471 24.6588 5.03346 
72 1 5.69471 24.6588 2.01338 
157 1 8.54206 24.6588 3.02007 
163 1 8.54206 24.6588 6.04015 
159 1 11.3894 24.6588 4.02676 
165 1 11.3894 24.6588 1.00669 
162 1 14.2368 24.6588 5.03346 
168 1 14.2368 24.6588 2.01338 
65 1 1.42368 27.1247 5.03346 
71 1 1.42368 27.1247 2.01338 
73 1 0 29.5906 3.02007 
75 1 2.84735 29.5906 4.02676 
79 1 0 29.5906 6.04015 
81 1 2.84735 29.5906 1.00669 
62 1 4.27103 27.1247 3.02007 
68 1 4.27103 27.1247 6.04015 
78 1 5.69471 29.5906 5.03346 
84 1 5.69471 29.5906 2.01338 
64 1 7.11838 27.1247 4.02676 
70 1 7.11838 27.1247 1.00669 
161 1 9.96573 27.1247 5.03346 
167 1 9.96573 27.1247 2.01338 
169 1 8.54206 29.5906 3.02007 
175 1 8.54206 29.5906 6.04015 
158 1 12.8131 27.1247 3.02007 
164 1 12.8131 27.1247 6.04015 
171 1 11.3894 29.5906 4.02676 
177 1 11.3894 29.5906 1.00669 
160 1 15.6604 27.1247 4.02676 
166 1 15.6604 27.1247 1.00669 
174 1 14.2368 29.5906 5.03346 
180 1 14.2368 29.5906 2.01338 
77 1 1.42368 32.0564 5.03346 
83 1 1.42368 32.0564 2.01338 
74 1 4.27103 32.0564 3.02007 
80 1 4.27103 32.0564 6.04015 
76 1 7.11838 32.0564 4.02676 
82 1 7.11838 32.0564 1.00669 
173 1 9.96573 32.0564 5.03346 
179 1 9.96573 32.0564 2.01338 
170 1 12.8131 32.0564 3.02007 
176 1 12.8131 32.0564 6.04015 
172 1 15.6604 32.0564 4.02676 
178 1 15.6604 32.0564 1.00669 
85 1 0 34.4508 3.02007 
87 1 2.84735 34.4508 4.02676 
89 1 1.42368 37.0597 5.03346 
91 1 0 34.4508 6.04015 
93 1 2.84735 34.4508 1.00669 
95 1 1.42368 37.0597 2.01338 
86 1 4.27103 37.0597 3.02007 
90 1 5.69471 34.4508 5.03346 
92 1 4.27103 37.0597 6.04015 
96 1 5.69471 34.4508 2.01338 
88 1 7.11838 37.0597 4.02676 
94 1 7.11838 37.0597 1.00669 
181 1 8.54206 34.4508 3.02007 
185 1 9.96573 37.0597 5.03346 
187 1 8.54206 34.4508 6.04015 
191 1 9.96573 37.0597 2.01338 
182 1 12.8131 37.0597 3.02007 
183 1 11.3894 34.4508 4.02676 
188 1 12.8131 37.0597 6.04015 
189 1 11.3894 34.4508 1.00669 
184 1 15.6604 37.0597 4.02676 
186 1 14.2368 34.4508 5.03346 
190 1 15.6604 37.0597 1.00669 
192 1 14.2368 34.4508 2.01338 
ITEM: TIMESTEP
2
ITEM: NUMBER OF ATOMS
192
ITEM: BOX BOUNDS pp ss pp
0 17.0841
-0.00394541 36.9921
0 6.04015
ITEM: ATOMS id type x y z 
1 1 0 0 0 
3 1 2.84735 0 1.00669 
5 1 1.42368 2.46588 2.01338 
7 1 0 0 3.02007 
9 1 2.84735 0 4.02676 
11 1 1.42368 2.46588 5.03346 
2 1 4.27103 2.46588 0 
6 1 5.69471 0 2.01338 
8 1 4.27103 2.46588 3.02007 
12 1 5.69471 0 5.03346 
4 1 7.11838 2.46588 1.00669 
10 1 7.11838 2.46588 4.02676 
97 1 8.54206 0 0 
101 1 9.96573 2.46588 2.01338 
103 1 8.54206 0 3.02007 
107 1 9.96573 2.46588 5.03346 
98 1 12.8131 2.46588 0 
99 1 11.3894 0 1.00669 
104 1 12.8131 2.46588 3.02007 
105 1 11.3894 0 4.02676 
100 1 15.6604 2.46588 1.00669 
102 1 14.2368 0 2.01338 
106 1 15.6604 2.46588 4.02676 
108 1 14.2368 0 5.03346 
13 1 0 4.93176 0 
15 1 2.84735 4.93176 1.00669 
19 1 0 4.93176 3.02007 
21 1 2.84735 4.93176 4.02676 
18 1 5.69471 4.93176 2.01338 
24 1 5.69471 4.93176 5.03346 
109 1 8.54206 4.93176 0 
115 1 8.54206 4.93176 3.02007 
111 1 11.3894 4.93176 1.00669 
117 1 11.3894 4.93176 4.02676 
114 1 14.2368 4.93176 2.01338 
120 1 14.2368 4.93176 5.03346 
17 1 1.42368 7.39764 2.01338 
23 1 1.42368 7.39764 5.03346 
25 1 0 9.86352 0 
27 1 2.84735 9.86352 1.00669 
31 1 0 9.86352 3.02007 
33 1 2.84735 9.86352 4.02676 
14 1 4.27103 7.39764 0 
20 1 4.27103 7.39764 3.02007 
30 1 5.69471 9.86352 2.01338 
36 1 5.69471 9.86352 5.03346 
16 1 7.11838 7.39764 1.00669 
22 1 7.11838 7.39764 4.02676 
113 1 9.96573 7.39764 2.01338 
119 1 9.96573 7.39764 5.03346 
121 1 8.54206 9.86352 0 
127 1 8.54206 9.86352 3.02007 
110 1 12.8131 7.39764 0 
116 1 12.8131 7.39764 3.02007 
123 1 11.3894 9.86352 1.00669 
129 1 11.3894 9.86352 4.02676 
112 1 15.6604 7.39764 1.00669 
118 1 15.6604 7.39764 4.02676 
126 1 14.2368 9.86352 2.01338 
132 1 14.2368 9.86352 5.03346 
29 1 1.42368 12.3294 2.01338 
35 1 1.42368 12.3294 5.03346 
26 1 4.27103 12.3294 0 
32 1 4.27103 12.3294 3.02007 
28 1 7.11838 12.3294 1.00669 
34 1 7.11838 12.3294 4.02676 
125 1 9.96573 12.3294 2.01338 
131 1 9.96573 12.3294 5.03346 
122 1 12.8131 12.3294 0 
128 1 12.8131 12.3294 3.02007 
124 1 15.6604 12.3294 1.00669 
130 1 15.6604 12.3294 4.02676 
37 1 0 14.7953 0 
39 1 2.84735 14.7953 1.00669 
41 1 1.42368 17.2612 2.01338 
43 1 0 14.7953 3.02007 
45 1 2.84735 14.7953 4.02676 
47 1 1.42368 17.2612 5.03346 
38 1 4.27103 17.2612 0 
42 1 5.69471 14.7953 2.01338 
44 1 4.27103 17.2612 3.02007 
48 1 5.69471 14.7953 5.03346 
40 1 7.11838 17.2612 1.00669 
46 1 7.11838 17.2612 4.02676 
133 1 8.54206 14.7953 0 
137 1 9.96573 17.2612 2.01338 
139 1 8.54206 14.7953 3.02007 
143 1 9.96573 17.2612 5.03346 
134 1 12.8131 17.2612 0 
135 1 11.3894 14.7953 1.00669 
140 1 12.8131 17.2612 3.02007 
141 1 11.3894 14.7953 4.02676 
136 1 15.6604 17.2612 1.00669 
138 1 14.2368 14.7953 2.01338 
142 1 15.6604 17.2612 4.02676 
144 1 14.2368 14.7953 5.03346 
49 1 0 19.727 3.02007 
51 1 2.84735 19.727 4.02676 
53 1 1.42368 22.1929 5.03346 
55 1 0 19.727 6.04015 
57 1 2.84735 19.727 1.00669 
59 1 1.42368 22.1929 2.01338 
50 1 4.27103 22.1929 3.02007 
54 1 5.69471 19.727 5.03346 
56 1 4.27103 22.1929 6.04015 
60 1 5.69471 19.727 2.01338 
52 1 7.11838 22.1929 4.02676 
58 1 7.11838 22.1929 1.00669 
145 1 8.54206 19.727 3.02007 
149 1 9.96573 22.1929 5.03346 
151 1 8.54206 19.727 6.04015 
155 1 9.96573 22.1929 2.01338 
146 1 12.8131 22.1929 3.02007 
147 1 11.3894 19.727 4.02676 
152 1 12.8131 22.1929 6.04015 
153 1 11.3894 19.727 1.00669 
148 1 15.6604 22.1929 4.02676 
150 1 14.2368 19.727 5.03346 
154 1 15.6604 22.1929 1.00669 
156 1 14.2368 19.727 2.01338 
61 1 0 24.6588 3.02007 
63 1 2.84735 24.6588 4.02676 
67 1 0 24.6588 6.04015 
69 1 2.84735 24.6588 1.00669 
66 1 5.69471 24.6588 5.03346 
72 1 5.69471 24.6588 2.01338 
157 1 8.54206 24.6588 3.02007 
163 1 8.54206 24.6588 6.04015 
159 1 11.3894 24.6588 4.02676 
165 1 11.3894 24.6588 1.00669 
162 1 14.2368 24.6588 5.03346 
168 1 14.2368 24.6588 2.01338 
65 1 1.42368 27.1247 5.03346 
71 1 1.42368 27.1247 2.01338 
73 1 0 29.5964 3.02007 
75 1 2.84735 29.5964 4.02676 
79 1 0 29.5964 6.04015 
81 1 2.84735 29.5964 1.00669 
62 1 4.27103 27.1247 3.02007 
68 1 4.27103 27.1247 6.04015 
78 1 5.69471 29.5964 5.03346 
84 1 5.69471 29.5964 2.01338 
64 1 7.11838 27.1247 4.02676 
70 1 7.11838 27.1247 1.00669 
161 1 9.96573 27.1247 5.03346 
167 1 9.96573 27.1247 2.01338 
169 1 8.54206 29.5964 3.02007 
175 1 8.54206 29.5964 6.04015 
158 1 12.8131 27.1247 3.02007 
164 1 12.8131 27.1247 6.04015 
171 1 11.3894 29.5964 4.02676 
177 1 11.3894 29.5964 1.00669 
160 1 15.6604 27.1247 4.02676 
166 1 15.6604 27.1247 1.00669 
174 1 14.2368 29.5964 5.03346 
180 1 14.2368 29.5964 2.01338 
77 1 1.42368 32.0108 5.03346 
83 1 1.42368 32.0108 2.01338 
74 1 4.27103 32.0108 3.02007 
80 1 4.27103 32.0108 6.04015 
76 1 7.11838 32.0108 4.02676 
82 1 7.11838 32.0108 1.00669 
173 1 9.96573 32.0108 5.03346 
179 1 9.96573 32.0108 2.01338 
170 1 12.8131 32.0108 3.02007 
176 1 12.8131 32.0108 6.04015 
172 1 15.6604 32.0108 4.02676 
178 1 15.6604 32.0108 1.00669 
85 1 0 34.455 3.02007 
87 1 2.84735 34.455 4.02676 
89 1 1.42368 37.0953 5.03346 
91 1 0 34.455 6.04015 
93 1 2.84735 34.455 1.00669 
95 1 1.42368 37.0953 2.01338 
86 1 4.27103 37.0953 3.02007 
90 1 5.69471 34.455 5.03346 
92 1 4.27103 37.0953 6.04015 
96 1 5.69471 34.455 2.01338 
88 1 7.11838 37.0953 4.02676 
94 1 7.11838 37.0953 1.00669 
181 1 8.54206 34.455 3.02007 
185 1 9.96573 37.0953 5.03346 
187 1 8.54206 34.455 6.04015 
191 1 9.96573 37.0953 2.01338 
182 1 12.8131 37.0953 3.02007 
183 1 11.3894 34.455 4.02676 
188 1 12.8131 37.0953 6.04015 
189 1 11.3894 34.455 1.00669 
184 1 15.6604 37.0953 4.02676 
186 1 14.2368 34.455 5.03346 
190 1 15.6604 37.0953 1.00669 
192 1 14.2368 34.455 2.01338 
ITEM: TIMESTEP
3
ITEM: NUMBER OF ATOMS
192
ITEM: BOX BOUNDS pp ss pp
0 17.0841
-0.00394541 36.9921
0 6.04015
ITEM: ATOMS id type x y z 
1 1 0 0 0 
3 1 2.84735 0 1.00669 
5 1 1.42368 2.46588 2.01338 
7 1 0 0 3.02007 
9 1 2.84735 0 4.02676 
11 1 1.42368 2.46588 5.03346 
2 1 4.27103 2.46588 0 
6 1 5.69471 0 2.01338 
8 1 4.27103 2.46588 3.02007 
12 1 5.69471 0 5.03346 
4 1 7.11838 2.46588 1.00669 
10 1 7.11838 2.46588 4.02676 
97 1 8.54206 0 0 
101 1 9.96573 2.46588 2.01338 
103 1 8.54206 0 3.02007 
107 1 9.96573 2.46588 5.03346 
98 1 12.8131 2.46588 0 
99 1 11.3894 0 1.00669 
104 1 12.8131 2.46588 3.02007 
105 1 11.3894 0 4.02676 
100 1 15.6604 2.46588 1.00669 
102 1 14.2368 0 2.01338 
106 1 15.6604 2.46588 4.02676 
108 1 14.2368 0 5.03346 
13 1 0 4.93176 0 
15 1 2.84735 4.93176 1.00669 
19 1 0 4.93176 3.02007 
21 1 2.84735 4.93176 4.02676 
18 1 5.69471 4.93176 2.01338 
24 1 5.69471 4.93176 5.03346 
109 1 8.54206 4.93176 0 
115 1 8.54206 4.93176 3.02007 
111 1 11.3894 4.93176 1.00669 
117 1 11.3894 4.93176 4.02676 
114 1 14.2368 4.93176 2.01338 
120 1 14.2368 4.93176 5.03346 
17 1 1.42368 7.39764 2.01338 
23 1 1.42368 7.39764 5.03346 
25 1 0 9.86352 0 
27 1 2.84735 9.86352 1.00669 
31 1 0 9.86352 3.02007 
33 1 2.84735 9.86352 4.02676 
14 1 4.27103 7.39764 0 
20 1 4.27103 7.39764 3.02007 
30 1 5.69471 9.86352 2.01338 
36 1 5.69471 9.86352 5.03346 
16 1 7.11838 7.39764 1.00669 
22 1 7.11838 7.39764 4.02676 
113 1 9.96573 7.39764 2.01338 
119 1 9.96573 7.39764 5.03346 
121 1 8.54206 9.86352 0 
127 1 8.54206 9.86352 3.02007 
110 1 12.8131 7.39764 0 
116 1 12.8131 7.39764 3.02007 
123 1 11.3894 9.86352 1.00669 
129 1 11.3894 9.86352 4.02676 
112 1 15.6604 7.39764 1.00669 
118 1 15.6604 7.39764 4.02676 
126 1 14.2368 9.86352 2.01338 
132 1 14.2368 9.86352 5.03346 
29 1 1.42368 12.3294 2.01338 
35 1 1.42368 12.3294 5.03346 
26 1 4.27103 12.3294 0 
32 1 4.27103 12.3294 3.02007 
28 1 7.11838 12.3294 1.00669 
34 1 7.11838 12.3294 4.02676 
125 1 9.96573 12.3294 2.01338 
131 1 9.96573 12.3294 5.03346 
122 1 12.8131 12.3294 0 
128 1 12.8131 12.3294 3.02007 
124 1 15.6604 12.3294 1.00669 
130 1 15.6604 12.3294 4.02676 
37 1 0 14.7953 0 
39 1 2.84735 14.7953 1.00669 
41 1 1.42368 17.2612 2.01338 
43 1 0 14.7953 3.02007 
45 1 2.84735 14.7953 4.02676 
47 1 1.42368 17.2612 5.03346 
38 1 4.27103 17.2612 0 
42 1 5.69471 14.7953 2.01338 
44 1 4.27103 17.2612 3.02007 
48 1 5.69471 14.7953 5.03346 
40 1 7.11838 17.2612 1.00669 
46 1 7.11838 17.2612 4.02676 
133 1 8.54206 14.7953 0 
137 1 9.96573 17.2612 2.01338 
139 1 8.54206 14.7953 3.02007 
143 1 9.96573 17.2612 5.03346 
134 1 12.8131 17.2612 0 
135 1 11.3894 14.7953 1.00669 
140 1 12.8131 17.2612 3.02007 
141 1 11.3894 14.7953 4.02676 
136 1 15.6604 17.2612 1.00669 
138 1 14.2368 14.7953 2.01338 
142 1 15.6604 17.2612 4.02676 
144 1 14.2368 14.7953 5.03346 
49 1 0 19.727 3.02007 
51 1 2.84735 19.727 4.02676 
53 1 1.42368 22.1929 5.03346 
55 1 0 19.727 6.04015 
57 1 2.84735 19.727 1.00669 
59 1 1.42368 22.1929 2.01338 
50 1 4.27103 22.1929 3.02007 
54 1 5.69471 19.727 5.03346 
56 1 4.27103 22.1929 6.04015 
60 1 5.69471 19.727 2.01338 
52 1 7.11838 22.1929 4.02676 
58 1 7.11838 22.1929 1.00669 
145 1 8.54206 19.727 3.02007 
149 1 9.96573 22.1929 5.03346 
151 1 8.54206 19.727 6.04015 
155 1 9.96573 22.1929 2.01338 
146 1 12.8131 22.1929 3.02007 
147 1 11.3894 19.727 4.02676 
152 1 12.8131 22.1929 6.04015 
153 1 11.3894 19.727 1.00669 
148 1 15.6604 22.1929 4.02676 
150 1 14.2368 19.727 5.03346 
154 1 15.6604 22.1929 1.00669 
156 1 14.2368 19.727 2.01338 
61 1 0 24.6582 3.02007 
63 1 2.84735 24.6582 4.02676 
67 1 0 24.6582 6.04015 
69 1 2.84735 24.6582 1.00669 
66 1 5.69471 24.6582 5.03346 
72 1 5.69471 24.6582 2.01338 
157 1 8.54206 24.6582 3.02007 
163 1 8.54206 24.6582 6.04015 
159 1 11.3894 24.6582 4.02676 
165 1 11.3894 24.6582 1.00669 
162 1 14.2368 24.6582 5.03346 
168 1 14.2368 24.6582 2.01338 
65 1 1.42368 27.1328 5.03346 
71 1 1.42368 27.1328 2.01338 
73 1 0 29.5679 3.02007 
75 1 2.84735 29.5679 4.02676 
79 1 0 29.5679 6.04015 
81 1 2.84735 29.5679 1.00669 
62 1 4.27103 27.1328 3.02007 
68 1 4.27103 27.1328 6.04015 
78 1 5.69471 29.5679 5.03346 
84 1 5.69471 29.5679 2.01338 
64 1 7.11838 27.1328 4.02676 
70 1 7.11838 27.1328 1.00669 
161 1 9.96573 27.1328 5.03346 
167 1 9.96573 27.1328 2.01338 
169 1 8.54206 29.5679 3.02007 
175 1 8.54206 29.5679 6.04015 
158 1 12.8131 27.1328 3.02007 
164 1 12.8131 27.1328 6.04015 
171 1 11.3894 29.5679 4.02676 
177 1 11.3894 29.5679 1.00669 
160 1 15.6604 27.1328 4.02676 
166 1 15.6604 27.1328 1.00669 
174 1 14.2368 29.5679 5.03346 
180 1 14.2368 29.5679 2.01338 
77 1 1.42368 32.0002 5.03346 
83 1 1.42368 32.0002 2.01338 
74 1 4.27103 32.0002 3.02007 
80 1 4.27103 32.0002 6.04015 
76 1 7.11838 32.0002 4.02676 
82 1 7.11838 32.0002 1.00669 
173 1 9.96573 32.0002 5.03346 
179 1 9.96573 32.0002 2.01338 
170 1 12.8131 32.0002 3.02007 
176 1 12.8131 32.0002 6.04015 
172 1 15.6604 32.0002 4.02676 
178 1 15.6604 32.0002 1.00669 
85 1 0 34.4688 3.02007 
87 1 2.84735 34.4688 4.02676 
89 1 1.42368 37.113 5.03346 
91 1 0 34.4688 6.04015 
93 1 2.84735 34.4688 1.00669 
95 1 1.42368 37.113 2.01338 
86 1 4.27103 37.113 3.02007 
90 1 5.69471 34.4688 5.03346 
92 1 4.27103 37.113 6.04015 
96 1 5.69471 34.4688 2.01338 
88 1 7.11838 37.113 4.02676 
94 1 7.11838 37.113 1.00669 
181 1 8.54206 34.4688 3.02007 
185 1 9.96573 37.113 5.03346 
187 1 8.54206 34.4688 6.04015 
191 1 9.96573 37.113 2.01338 
182 1 12.8131 37.113 3.02007 
183 1 11.3894 34.4688 4.02676 
188 1 12.8131 37.113 6.04015 
189 1 11.3894 34.4688 1.00669 
184 1 15.6604 37.113 4.02676 
186 1 14.2368 34.4688 5.03346 
190 1 15.6604 37.113 1.00669 
192 1 14.2368 34.4688 2.01338 
ITEM: TIMESTEP
4
ITEM: NUMBER OF ATOMS
192
ITEM: BOX BOUNDS pp ss pp
0 17.0841
-0.00394541 36.9921
0 6.04015
ITEM: ATOMS id type x y z 
1 1 0 0 0 
3 1 2.84735 0 1.00669 
5 1 1.42368 2.46588 2.01338 
7 1 0 0 3.02007 
9 1 2.84735 0 4.02676 
11 1 1.42368 2.46588 5.03346 
2 1 4.27103 2.46588 0 
6 1 5.69471 0 2.01338 
8 1 4.27103 2.46588 3.02007 
12 1 5.69471 0 5.03346 
4 1 7.11838 2.46588 1.00669 
10 1 7.11838 2.46588 4.02676 
97 1 8.54206 0 0 
101 1 9.96573 2.46588 2.01338 
103 1 8.54206 0 3.02007 
107 1 9.96573 2.46588 5.03346 
98 1 12.8131 2.46588 0 
99 1 11.3894 0 1.00669 
104 1 12.8131 2.46588 3.02007 
105 1 11.3894 0 4.02676 
100 1 15.6604 2.46588 1.00669 
102 1 14.2368 0 2.01338 
106 1 15.6604 2.46588 4.02676 
108 1 14.2368 0 5.03346 
13 1 0 4.93176 0 
15 1 2.84735 4.93176 1.00669 
19 1 0 4.93176 3.02007 
21 1 2.84735 4.93176 4.02676 
18 1 5.69471 4.93176 2.01338 
24 1 5.69471 4.93176 5.03346 
109 1 8.54206 4.93176 0 
115 1 8.54206 4.93176 3.02007 
111 1 11.3894 4.93176 1.00669 
117 1 11.3894 4.93176 4.02676 
114 1 14.2368 4.93176 2.01338 
120 1 14.2368 4.93176 5.03346 
17 1 1.42368 7.39764 2.01338 
23 1 1.42368 7.39764 5.03346 
25 1 0 9.86352 0 
27 1 2.84735 9.86352 1.00669 
31 1 0 9.86352 3.02007 
33 1 2.84735 9.86352 4.02676 
14 1 4.27103 7.39764 0 
20 1 4.27103 7.39764 3.02007 
30 1 5.69471 9.86352 2.01338 
36 1 5.69471 9.86352 5.03346 
16 1 7.11838 7.39764 1.00669 
22 1 7.11838 7.39764 4.02676 
113 1 9.96573 7.39764 2.01338 
119 1 9.96573 7.39764 5.03346 
121 1 8.54206 9.86352 0 
127 1 8.54206 9.86352 3.02007 
110 1 12.8131 7.39764 0 
116 1 12.8131 7.39764 3.02007 
123 1 11.3894 9.86352 1.00669 
129 1 11.3894 9.86352 4.02676 
112 1 15.6604 7.39764 1.00669 
118 1 15.6604 7.39764 4.02676 
126 1 14.2368 9.86352 2.01338 
132 1 14.2368 9.86352 5.03346 
29 1 1.42368 12.3294 2.01338 
35 1 1.42368 12.3294 5.03346 
26 1 4.27103 12.3294 0 
32 1 4.27103 12.3294 3.02007 
28 1 7.11838 12.3294 1.00669 
34 1 7.11838 12.3294 4.02676 
125 1 9.96573 12.3294 2.01338 
131 1 9.96573 12.3294 5.03346 
122 1 12.8131 12.3294 0 
128 1 12.8131 12.3294 3.02007 
124 1 15.6604 12.3294 1.00669 
130 1 15.6604 12.3294 4.02676 
37 1 0 14.7953 0 
39 1 2.84735 14.7953 1.00669 
41 1 1.42368 17.2612 2.01338 
43 1 0 14.7953 3.02007 
45 1 2.84735 14.7953 4.02676 
47 1 1.42368 17.2612 5.03346 
38 1 4.27103 17.2612 0 
42 1 5.69471 14.7953 2.01338 
44 1 4.27103 17.2612 3.02007 
48 1 5.69471 14.7953 5.03346 
40 1 7.11838 17.2612 1.00669 
46 1 7.11838 17.2612 4.02676 
133 1 8.54206 14.7953 0 
137 1 9.96573 17.2612 2.01338 
139 1 8.54206 14.7953 3.02007 
143 1 9.96573 17.2612 5.03346 
134 1 12.8131 17.2612 0 
135 1 11.3894 14.7953 1.00669 
140 1 12.8131 17.2612 3.02007 
141 1 11.3894 14.7953 4.02676 
136 1 15.6604 17.2612 1.00669 
138 1 14.2368 14.7953 2.01338 
142 1 15.6604 17.2612 4.02676 
144 1 14.2368 14.7953 5.03346 
49 1 0 19.7271 3.02007 
51 1 2.84735 19.7271 4.02676 
53 1 1.42368 22.1916 5.03346 
55 1 0 19.7271 6.04015 
57 1 2.84735 19.7271 1.00669 
59 1 1.42368 22.1916 2.01338 
50 1 4.27103 22.1916 3.02007 
54 1 5.69471 19.7271 5.03346 
56 1 4.27103 22.1916 6.04015 
60 1 5.69471 19.7271 2.01338 
52 1 7.11838 22.1916 4.02676 
58 1 7.11838 22.1916 1.00669 
145 1 8.54206 19.7271 3.02007 
149 1 9.96573 22.1916 5.03346 
151 1 8.54206 19.7271 6.04015 
155 1 9.96573 22.1916 2.01338 
146 1 12.8131 22.1916 3.02007 
147 1 11.3894 19.7271 4.02676 
152 1 12.8131 22.1916 6.04015 
153 1 11.3894 19.7271 1.00669 
148 1 15.6604 22.1916 4.02676 
150 1 14.2368 19.7271 5.03346 
154 1 15.6604 22.1916 1.00669 
156 1 14.2368 19.7271 2.01338 
61 1 0 24.6673 3.02007 
63 1 2.84735 24.6673 4.02676 
67 1 0 24.6673 6.04015 
69 1 2.84735 24.6673 1.00669 
66 1 5.69471 24.6673 5.03346 
72 1 5.69471 24.6673 2.01338 
157 1 8.54206 24.6673 3.02007 
163 1 8.54206 24.6673 6.04015 
159 1 11.3894 24.6673 4.02676 
165 1 11.3894 24.6673 1.00669 
162 1 14.2368 24.6673 5.03346 
168 1 14.2368 24.6673 2.01338 
65 1 1.42368 27.1148 5.03346 
71 1 1.42368 27.1148 2.01338 
73 1 0 29.5527 3.02007 
75 1 2.84735 29.5527 4.02676 
79 1 0 29.5527 6.04015 
81 1 2.84735 29.5527 1.00669 
62 1 4.27103 27.1148 3.02007 
68 1 4.27103 27.1148 6.04015 
78 1 5.69471 29.5527 5.03346 
84 1 5.69471 29.5527 2.01338 
64 1 7.11838 27.1148 4.02676 
70 1 7.11838 27.1148 1.00669 
161 1 9.96573 27.1148 5.03346 
167 1 9.96573 27.1148 2.01338 
169 1 8.54206 29.5527 3.02007 
175 1 8.54206 29.5527 6.04015 
158 1 12.8131 27.1148 3.02007 
164 1 12.8131 27.1148 6.04015 
171 1 11.3894 29.5527 4.02676 
177 1 11.3894 29.5527 1.00669 
160 1 15.6604 27.1148 4.02676 
166 1 15.6604 27.1148 1.00669 
174 1 14.2368 29.5527 5.03346 
180 1 14.2368 29.5527 2.01338 
77 1 1.42368 31.9972 5.03346 
83 1 1.42368 31.9972 2.01338 
74 1 4.27103 31.9972 3.02007 
80 1 4.27103 31.9972 6.04015 
76 1 7.11838 31.9972 4.02676 
82 1 7.11838 31.9972 1.00669 
173 1 9.96573 31.9972 5.03346 
179 1 9.96573 31.9972 2.01338 
170 1 12.8131 31.9972 3.02007 
176 1 12.8131 31.9972 6.04015 
172 1 15.6604 31.9972 4.02676 
178 1 15.6604 31.9972 1.00669 
85 1 0 34.4794 3.02007 
87 1 2.84735 34.4794 4.02676 
89 1 1.42368 37.1307 5.03346 
91 1 0 34.4794 6.04015 
93 1 2.84735 34.4794 1.00669 
95 1 1.42368 37.1307 2.01338 
86 1 4.27103 37.1307 3.02007 
90 1 5.69471 34.4794 5.03346 
92 1 4.27103 37.1307 6.04015 
96 1 5.69471 34.4794 2.01338 
88 1 7.11838 37.1307 4.02676 
94 1 7.11838 37.1307 1.00669 
181 1 8.54206 34.4794 3.02007 
185 1 9.96573 37.1307 5.03346 
187 1 8.54206 34.4794 6.04015 
191 1 9.96573 37.1307 2.01338 
182 1 12.8131 37.1307 3.02007 
183 1 11.3894 34.4794 4.02676 
188 1 12.8131 37.1307 6.04015 
189 1 11.3894 34.4794 1.00669 
184 1 15.6604 37.1307 4.02676 
186 1 14.2368 34.4794 5.03346 
190 1 15.6604 37.1307 1.00669 
192 1 14.2368 34.4794 2.01338 
ITEM: TIMESTEP
5
ITEM: NUMBER OF ATOMS
192
ITEM: BOX BOUNDS pp ss pp
0 17.0841
-0.00394541 36.9921
0 6.04015
ITEM: ATOMS id type x y z 
1 1 0 0 0 
3 1 2.84735 0 1.00669 
5 1 1.42368 2.46588 2.01338 
7 1 0 0 3.02007 
9 1 2.84735 0 4.02676 
11 1 1.42368 2.46588 5.03346 
2 1 4.27103 2.46588 0 
6 1 5.69471 0 2.01338 
8 1 4.27103 2.46588 3.02007 
12 1 5.69471 0 5.03346 
4 1 7.11838 2.46588 1.00669 
10 1 7.11838 2.46588 4.02676 
97 1 8.54206 0 0 
101 1 9.96573 2.46588 2.01338 
103 1 8.54206 0 3.02007 
107 1 9.96573 2.46588 5.03346 
98 1 12.8131 2.46588 0 
99 1 11.3894 0 1.00669 
104 1 12.8131 2.46588 3.02007 
105 1 11.3894 0 4.02676 
100 1 15.6604 2.46588 1.00669 
102 1 14.2368 0 2.01338 
106 1 15.6604 2.46588 4.02676 
108 1 14.2368 0 5.03346 
13 1 0 4.93176 0 
15 1 2.84735 4.93176 1.00669 
19 1 0 4.93176 3.02007 
21 1 2.84735 4.93176 4.02676 
18 1 5.69471 4.93176 2.01338 
24 1 5.69471 4.93176 5.03346 
109 1 8.54206 4.93176 0 
115 1 8.54206 4.93176 3.02007 
111 1 11.3894 4.93176 1.00669 
117 1 11.3894 4.93176 4.02676 
114 1 14.2368 4.93176 2.01338 
120 1 14.2368 4.93176 5.03346 
17 1 1.42368 7.39764 2.01338 
23 1 1.42368 7.39764 5.03346 
25 1 0 9.86352 0 
27 1 2.84735 9.86352 1.00669 
31 1 0 9.86352 3.02007 
33 1 2.84735 9.86352 4.02676 
14 1 4.27103 7.39764 0 
20 1 4.27103 7.39764 3.02007 
30 1 5.69471 9.86352 2.01338 
36 1 5.69471 9.86352 5.03346 
16 1 7.11838 7.39764 1.00669 
22 1 7.11838 7.39764 4.02676 
113 1 9.96573 7.39764 2.01338 
119 1 9.96573 7.39764 5.03346 