 
 500 atoms 
 
 1 atom types
 0.00000000000000000000 18.10000000000000142109 xlo xhi
 0.00000000000000000000 18.10000000000000142109 ylo yhi
 0.00000000000000000000 18.10000000000000142109 zlo zhi
 0.00000000000000000000 0.00000000000000000000 0.00000000000000000000 xy xz yz
 
 Atoms 
 
	1	1	0.00000000000000000000	0.00000000000000000000	0.00000000000000000000
	2	1	1.81000000000000005329	1.81000000000000005329	0.00000000000000000000
	3	1	1.81000000000000005329	0.00000000000000000000	1.81000000000000005329
	4	1	0.00000000000000000000	1.81000000000000005329	1.81000000000000005329
	5	1	0.00000000000000000000	0.00000000000000000000	3.62000000000000010658
	6	1	1.81000000000000005329	1.81000000000000005329	3.62000000000000010658
	7	1	1.81000000000000005329	0.00000000000000000000	5.42999999999999971578
	8	1	0.00000000000000000000	1.81000000000000005329	5.42999999999999971578
	9	1	0.00000000000000000000	0.00000000000000000000	7.24000000000000021316
	10	1	1.81000000000000005329	1.81000000000000005329	7.24000000000000021316
	11	1	1.81000000000000005329	0.00000000000000000000	9.05000000000000071054
	12	1	0.00000000000000000000	1.81000000000000005329	9.05000000000000071054
	13	1	0.00000000000000000000	0.00000000000000000000	10.85999999999999943157
	14	1	1.81000000000000005329	1.81000000000000005329	10.85999999999999943157
	15	1	1.81000000000000005329	0.00000000000000000000	12.66999999999999992895
	16	1	0.00000000000000000000	1.81000000000000005329	12.66999999999999992895
	17	1	0.00000000000000000000	0.00000000000000000000	14.48000000000000042633
	18	1	1.81000000000000005329	1.81000000000000005329	14.48000000000000042633
	19	1	1.81000000000000005329	0.00000000000000000000	16.28999999999999914735
	20	1	0.00000000000000000000	1.81000000000000005329	16.28999999999999914735
	21	1	0.00000000000000000000	3.62000000000000010658	0.00000000000000000000
	22	1	1.81000000000000005329	5.42999999999999971578	0.00000000000000000000
	23	1	1.81000000000000005329	3.62000000000000010658	1.81000000000000005329
	24	1	0.00000000000000000000	5.42999999999999971578	1.81000000000000005329
	25	1	0.00000000000000000000	3.62000000000000010658	3.62000000000000010658
	26	1	1.81000000000000005329	5.42999999999999971578	3.62000000000000010658
	27	1	1.81000000000000005329	3.62000000000000010658	5.42999999999999971578
	28	1	0.00000000000000000000	5.42999999999999971578	5.42999999999999971578
	29	1	0.00000000000000000000	3.62000000000000010658	7.24000000000000021316
	30	1	1.81000000000000005329	5.42999999999999971578	7.24000000000000021316
	31	1	1.81000000000000005329	3.62000000000000010658	9.05000000000000071054
	32	1	0.00000000000000000000	5.42999999999999971578	9.05000000000000071054
	33	1	0.00000000000000000000	3.62000000000000010658	10.85999999999999943157
	34	1	1.81000000000000005329	5.42999999999999971578	10.85999999999999943157
	35	1	1.81000000000000005329	3.62000000000000010658	12.66999999999999992895
	36	1	0.00000000000000000000	5.42999999999999971578	12.66999999999999992895
	37	1	0.00000000000000000000	3.62000000000000010658	14.48000000000000042633
	38	1	1.81000000000000005329	5.42999999999999971578	14.48000000000000042633
	39	1	1.81000000000000005329	3.62000000000000010658	16.28999999999999914735
	40	1	0.00000000000000000000	5.42999999999999971578	16.28999999999999914735
	41	1	0.00000000000000000000	7.24000000000000021316	0.00000000000000000000
	42	1	1.81000000000000005329	9.05000000000000071054	0.00000000000000000000
	43	1	1.81000000000000005329	7.24000000000000021316	1.81000000000000005329
	44	1	0.00000000000000000000	9.05000000000000071054	1.81000000000000005329
	45	1	0.00000000000000000000	7.24000000000000021316	3.62000000000000010658
	46	1	1.81000000000000005329	9.05000000000000071054	3.62000000000000010658
	47	1	1.81000000000000005329	7.24000000000000021316	5.42999999999999971578
	48	1	0.00000000000000000000	9.05000000000000071054	5.42999999999999971578
	49	1	0.00000000000000000000	7.24000000000000021316	7.24000000000000021316
	50	1	1.81000000000000005329	9.05000000000000071054	7.24000000000000021316
	51	1	1.81000000000000005329	7.24000000000000021316	9.05000000000000071054
	52	1	0.00000000000000000000	9.05000000000000071054	9.05000000000000071054
	53	1	0.00000000000000000000	7.24000000000000021316	10.85999999999999943157
	54	1	1.81000000000000005329	9.05000000000000071054	10.85999999999999943157
	55	1	1.81000000000000005329	7.24000000000000021316	12.66999999999999992895
	56	1	0.00000000000000000000	9.05000000000000071054	12.66999999999999992895
	57	1	0.00000000000000000000	7.24000000000000021316	14.48000000000000042633
	58	1	1.81000000000000005329	9.05000000000000071054	14.48000000000000042633
	59	1	1.81000000000000005329	7.24000000000000021316	16.28999999999999914735
	60	1	0.00000000000000000000	9.05000000000000071054	16.28999999999999914735
	61	1	0.00000000000000000000	10.85999999999999943157	0.00000000000000000000
	62	1	1.81000000000000005329	12.66999999999999992895	0.00000000000000000000
	63	1	1.81000000000000005329	10.85999999999999943157	1.81000000000000005329
	64	1	0.00000000000000000000	12.66999999999999992895	1.81000000000000005329
	65	1	0.00000000000000000000	10.85999999999999943157	3.62000000000000010658
	66	1	1.81000000000000005329	12.66999999999999992895	3.62000000000000010658
	67	1	1.81000000000000005329	10.85999999999999943157	5.42999999999999971578
	68	1	0.00000000000000000000	12.66999999999999992895	5.42999999999999971578
	69	1	0.00000000000000000000	10.85999999999999943157	7.24000000000000021316
	70	1	1.81000000000000005329	12.66999999999999992895	7.24000000000000021316
	71	1	1.81000000000000005329	10.85999999999999943157	9.05000000000000071054
	72	1	0.00000000000000000000	12.66999999999999992895	9.05000000000000071054
	73	1	0.00000000000000000000	10.85999999999999943157	10.85999999999999943157
	74	1	1.81000000000000005329	12.66999999999999992895	10.85999999999999943157
	75	1	1.81000000000000005329	10.85999999999999943157	12.66999999999999992895
	76	1	0.00000000000000000000	12.66999999999999992895	12.66999999999999992895
	77	1	0.00000000000000000000	10.85999999999999943157	14.48000000000000042633
	78	1	1.81000000000000005329	12.66999999999999992895	14.48000000000000042633
	79	1	1.81000000000000005329	10.85999999999999943157	16.28999999999999914735
	80	1	0.00000000000000000000	12.66999999999999992895	16.28999999999999914735
	81	1	0.00000000000000000000	14.48000000000000042633	0.00000000000000000000
	82	1	1.81000000000000005329	16.28999999999999914735	0.00000000000000000000
	83	1	1.81000000000000005329	14.48000000000000042633	1.81000000000000005329
	84	1	0.00000000000000000000	16.28999999999999914735	1.81000000000000005329
	85	1	0.00000000000000000000	14.48000000000000042633	3.62000000000000010658
	86	1	1.81000000000000005329	16.28999999999999914735	3.62000000000000010658
	87	1	1.81000000000000005329	14.48000000000000042633	5.42999999999999971578
	88	1	0.00000000000000000000	16.28999999999999914735	5.42999999999999971578
	89	1	0.00000000000000000000	14.48000000000000042633	7.24000000000000021316
	90	1	1.81000000000000005329	16.28999999999999914735	7.24000000000000021316
	91	1	1.81000000000000005329	14.48000000000000042633	9.05000000000000071054
	92	1	0.00000000000000000000	16.28999999999999914735	9.05000000000000071054
	93	1	0.00000000000000000000	14.48000000000000042633	10.85999999999999943157
	94	1	1.81000000000000005329	16.28999999999999914735	10.85999999999999943157
	95	1	1.81000000000000005329	14.48000000000000042633	12.66999999999999992895
	96	1	0.00000000000000000000	16.28999999999999914735	12.66999999999999992895
	97	1	0.00000000000000000000	14.48000000000000042633	14.48000000000000042633
	98	1	1.81000000000000005329	16.28999999999999914735	14.48000000000000042633
	99	1	1.81000000000000005329	14.48000000000000042633	16.28999999999999914735
	100	1	0.00000000000000000000	16.28999999999999914735	16.28999999999999914735
	101	1	3.62000000000000010658	0.00000000000000000000	0.00000000000000000000
	102	1	5.42999999999999971578	1.81000000000000005329	0.00000000000000000000
	103	1	5.42999999999999971578	0.00000000000000000000	1.81000000000000005329
	104	1	3.62000000000000010658	1.81000000000000005329	1.81000000000000005329
	105	1	3.62000000000000010658	0.00000000000000000000	3.62000000000000010658
	106	1	5.42999999999999971578	1.81000000000000005329	3.62000000000000010658
	107	1	5.42999999999999971578	0.00000000000000000000	5.42999999999999971578
	108	1	3.62000000000000010658	1.81000000000000005329	5.42999999999999971578
	109	1	3.62000000000000010658	0.00000000000000000000	7.24000000000000021316
	110	1	5.42999999999999971578	1.81000000000000005329	7.24000000000000021316
	111	1	5.42999999999999971578	0.00000000000000000000	9.05000000000000071054
	112	1	3.62000000000000010658	1.81000000000000005329	9.05000000000000071054
	113	1	3.62000000000000010658	0.00000000000000000000	10.85999999999999943157
	114	1	5.42999999999999971578	1.81000000000000005329	10.85999999999999943157
	115	1	5.42999999999999971578	0.00000000000000000000	12.66999999999999992895
	116	1	3.62000000000000010658	1.81000000000000005329	12.66999999999999992895
	117	1	3.62000000000000010658	0.00000000000000000000	14.48000000000000042633
	118	1	5.42999999999999971578	1.81000000000000005329	14.48000000000000042633
	119	1	5.42999999999999971578	0.00000000000000000000	16.28999999999999914735
	120	1	3.62000000000000010658	1.81000000000000005329	16.28999999999999914735
	121	1	3.62000000000000010658	3.62000000000000010658	0.00000000000000000000
	122	1	5.42999999999999971578	5.42999999999999971578	0.00000000000000000000
	123	1	5.42999999999999971578	3.62000000000000010658	1.81000000000000005329
	124	1	3.62000000000000010658	5.42999999999999971578	1.81000000000000005329
	125	1	3.62000000000000010658	3.62000000000000010658	3.62000000000000010658
	126	1	5.42999999999999971578	5.42999999999999971578	3.62000000000000010658
	127	1	5.42999999999999971578	3.62000000000000010658	5.42999999999999971578
	128	1	3.62000000000000010658	5.42999999999999971578	5.42999999999999971578
	129	1	3.62000000000000010658	3.62000000000000010658	7.24000000000000021316
	130	1	5.42999999999999971578	5.42999999999999971578	7.24000000000000021316
	131	1	5.42999999999999971578	3.62000000000000010658	9.05000000000000071054
	132	1	3.62000000000000010658	5.42999999999999971578	9.05000000000000071054
	133	1	3.62000000000000010658	3.62000000000000010658	10.85999999999999943157
	134	1	5.42999999999999971578	5.42999999999999971578	10.85999999999999943157
	135	1	5.42999999999999971578	3.62000000000000010658	12.66999999999999992895
	136	1	3.62000000000000010658	5.42999999999999971578	12.66999999999999992895
	137	1	3.62000000000000010658	3.62000000000000010658	14.48000000000000042633
	138	1	5.42999999999999971578	5.42999999999999971578	14.48000000000000042633
	139	1	5.42999999999999971578	3.62000000000000010658	16.28999999999999914735
	140	1	3.62000000000000010658	5.42999999999999971578	16.28999999999999914735
	141	1	3.62000000000000010658	7.24000000000000021316	0.00000000000000000000
	142	1	5.42999999999999971578	9.05000000000000071054	0.00000000000000000000
	143	1	5.42999999999999971578	7.24000000000000021316	1.81000000000000005329
	144	1	3.62000000000000010658	9.05000000000000071054	1.81000000000000005329
	145	1	3.62000000000000010658	7.24000000000000021316	3.62000000000000010658
	146	1	5.42999999999999971578	9.05000000000000071054	3.62000000000000010658
	147	1	5.42999999999999971578	7.24000000000000021316	5.42999999999999971578
	148	1	3.62000000000000010658	9.05000000000000071054	5.42999999999999971578
	149	1	3.62000000000000010658	7.24000000000000021316	7.24000000000000021316
	150	1	5.42999999999999971578	9.05000000000000071054	7.24000000000000021316
	151	1	5.42999999999999971578	7.24000000000000021316	9.05000000000000071054
	152	1	3.62000000000000010658	9.05000000000000071054	9.05000000000000071054
	153	1	3.62000000000000010658	7.24000000000000021316	10.85999999999999943157
	154	1	5.42999999999999971578	9.05000000000000071054	10.85999999999999943157
	155	1	5.42999999999999971578	7.24000000000000021316	12.66999999999999992895
	156	1	3.62000000000000010658	9.05000000000000071054	12.66999999999999992895
	157	1	3.62000000000000010658	7.24000000000000021316	14.48000000000000042633
	158	1	5.42999999999999971578	9.05000000000000071054	14.48000000000000042633
	159	1	5.42999999999999971578	7.24000000000000021316	16.28999999999999914735
	160	1	3.62000000000000010658	9.05000000000000071054	16.28999999999999914735
	161	1	3.62000000000000010658	10.85999999999999943157	0.00000000000000000000
	162	1	5.42999999999999971578	12.66999999999999992895	0.00000000000000000000
	163	1	5.42999999999999971578	10.85999999999999943157	1.81000000000000005329
	164	1	3.62000000000000010658	12.66999999999999992895	1.81000000000000005329
	165	1	3.62000000000000010658	10.85999999999999943157	3.62000000000000010658
	166	1	5.42999999999999971578	12.66999999999999992895	3.62000000000000010658
	167	1	5.42999999999999971578	10.85999999999999943157	5.42999999999999971578
	168	1	3.62000000000000010658	12.66999999999999992895	5.42999999999999971578
	169	1	3.62000000000000010658	10.85999999999999943157	7.24000000000000021316
	170	1	5.42999999999999971578	12.66999999999999992895	7.24000000000000021316
	171	1	5.42999999999999971578	10.85999999999999943157	9.05000000000000071054
	172	1	3.62000000000000010658	12.66999999999999992895	9.05000000000000071054
	173	1	3.62000000000000010658	10.85999999999999943157	10.85999999999999943157
	174	1	5.42999999999999971578	12.66999999999999992895	10.85999999999999943157
	175	1	5.42999999999999971578	10.85999999999999943157	12.66999999999999992895
	176	1	3.62000000000000010658	12.66999999999999992895	12.66999999999999992895
	177	1	3.62000000000000010658	10.85999999999999943157	14.48000000000000042633
	178	1	5.42999999999999971578	12.66999999999999992895	14.48000000000000042633
	179	1	5.42999999999999971578	10.85999999999999943157	16.28999999999999914735
	180	1	3.62000000000000010658	12.66999999999999992895	16.28999999999999914735
	181	1	3.62000000000000010658	14.48000000000000042633	0.00000000000000000000
	182	1	5.42999999999999971578	16.28999999999999914735	0.00000000000000000000
	183	1	5.42999999999999971578	14.48000000000000042633	1.81000000000000005329
	184	1	3.62000000000000010658	16.28999999999999914735	1.81000000000000005329
	185	1	3.62000000000000010658	14.48000000000000042633	3.62000000000000010658
	186	1	5.42999999999999971578	16.28999999999999914735	3.62000000000000010658
	187	1	5.42999999999999971578	14.48000000000000042633	5.42999999999999971578
	188	1	3.62000000000000010658	16.28999999999999914735	5.42999999999999971578
	189	1	3.62000000000000010658	14.48000000000000042633	7.24000000000000021316
	190	1	5.42999999999999971578	16.28999999999999914735	7.24000000000000021316
	191	1	5.42999999999999971578	14.48000000000000042633	9.05000000000000071054
	192	1	3.62000000000000010658	16.28999999999999914735	9.05000000000000071054
	193	1	3.62000000000000010658	14.48000000000000042633	10.85999999999999943157
	194	1	5.42999999999999971578	16.28999999999999914735	10.85999999999999943157
	195	1	5.42999999999999971578	14.48000000000000042633	12.66999999999999992895
	196	1	3.62000000000000010658	16.28999999999999914735	12.66999999999999992895
	197	1	3.62000000000000010658	14.48000000000000042633	14.48000000000000042633
	198	1	5.42999999999999971578	16.28999999999999914735	14.48000000000000042633
	199	1	5.42999999999999971578	14.48000000000000042633	16.28999999999999914735
	200	1	3.62000000000000010658	16.28999999999999914735	16.28999999999999914735
	201	1	7.24000000000000021316	0.00000000000000000000	0.00000000000000000000
	202	1	9.05000000000000071054	1.81000000000000005329	0.00000000000000000000
	203	1	9.05000000000000071054	0.00000000000000000000	1.81000000000000005329
	204	1	7.24000000000000021316	1.81000000000000005329	1.81000000000000005329
	205	1	7.24000000000000021316	0.00000000000000000000	3.62000000000000010658
	206	1	9.05000000000000071054	1.81000000000000005329	3.62000000000000010658
	207	1	9.05000000000000071054	0.00000000000000000000	5.42999999999999971578
	208	1	7.24000000000000021316	1.81000000000000005329	5.42999999999999971578
	209	1	7.24000000000000021316	0.00000000000000000000	7.24000000000000021316
	210	1	9.05000000000000071054	1.81000000000000005329	7.24000000000000021316
	211	1	9.05000000000000071054	0.00000000000000000000	9.05000000000000071054
	212	1	7.24000000000000021316	1.81000000000000005329	9.05000000000000071054
	213	1	7.24000000000000021316	0.00000000000000000000	10.85999999999999943157
	214	1	9.05000000000000071054	1.81000000000000005329	10.85999999999999943157
	215	1	9.05000000000000071054	0.00000000000000000000	12.66999999999999992895
	216	1	7.24000000000000021316	1.81000000000000005329	12.66999999999999992895
	217	1	7.24000000000000021316	0.00000000000000000000	14.48000000000000042633
	218	1	9.05000000000000071054	1.81000000000000005329	14.48000000000000042633
	219	1	9.05000000000000071054	0.00000000000000000000	16.28999999999999914735
	220	1	7.24000000000000021316	1.81000000000000005329	16.28999999999999914735
	221	1	7.24000000000000021316	3.62000000000000010658	0.00000000000000000000
	222	1	9.05000000000000071054	5.42999999999999971578	0.00000000000000000000
	223	1	9.05000000000000071054	3.62000000000000010658	1.81000000000000005329
	224	1	7.24000000000000021316	5.42999999999999971578	1.81000000000000005329
	225	1	7.24000000000000021316	3.62000000000000010658	3.62000000000000010658
	226	1	9.05000000000000071054	5.42999999999999971578	3.62000000000000010658
	227	1	9.05000000000000071054	3.62000000000000010658	5.42999999999999971578
	228	1	7.24000000000000021316	5.42999999999999971578	5.42999999999999971578
	229	1	7.24000000000000021316	3.62000000000000010658	7.24000000000000021316
	230	1	9.05000000000000071054	5.42999999999999971578	7.24000000000000021316
	231	1	9.05000000000000071054	3.62000000000000010658	9.05000000000000071054
	232	1	7.24000000000000021316	5.42999999999999971578	9.05000000000000071054
	233	1	7.24000000000000021316	3.62000000000000010658	10.85999999999999943157
	234	1	9.05000000000000071054	5.42999999999999971578	10.85999999999999943157
	235	1	9.05000000000000071054	3.62000000000000010658	12.66999999999999992895
	236	1	7.24000000000000021316	5.42999999999999971578	12.66999999999999992895
	237	1	7.24000000000000021316	3.62000000000000010658	14.48000000000000042633
	238	1	9.05000000000000071054	5.42999999999999971578	14.48000000000000042633
	239	1	9.05000000000000071054	3.62000000000000010658	16.28999999999999914735
	240	1	7.24000000000000021316	5.42999999999999971578	16.28999999999999914735
	241	1	7.24000000000000021316	7.24000000000000021316	0.00000000000000000000
	242	1	9.05000000000000071054	9.05000000000000071054	0.00000000000000000000
	243	1	9.05000000000000071054	7.24000000000000021316	1.81000000000000005329
	244	1	7.24000000000000021316	9.05000000000000071054	1.81000000000000005329
	245	1	7.24000000000000021316	7.24000000000000021316	3.62000000000000010658
	246	1	9.05000000000000071054	9.05000000000000071054	3.62000000000000010658
	247	1	9.05000000000000071054	7.24000000000000021316	5.42999999999999971578
	248	1	7.24000000000000021316	9.05000000000000071054	5.42999999999999971578
	249	1	7.24000000000000021316	7.24000000000000021316	7.24000000000000021316
	250	1	9.05000000000000071054	9.05000000000000071054	7.24000000000000021316
	251	1	9.05000000000000071054	7.24000000000000021316	9.05000000000000071054
	252	1	7.24000000000000021316	9.05000000000000071054	9.05000000000000071054
	253	1	7.24000000000000021316	7.24000000000000021316	10.85999999999999943157
	254	1	9.05000000000000071054	9.05000000000000071054	10.85999999999999943157
	255	1	9.05000000000000071054	7.24000000000000021316	12.66999999999999992895
	256	1	7.24000000000000021316	9.05000000000000071054	12.66999999999999992895
	257	1	7.24000000000000021316	7.24000000000000021316	14.48000000000000042633
	258	1	9.05000000000000071054	9.05000000000000071054	14.48000000000000042633
	259	1	9.05000000000000071054	7.24000000000000021316	16.28999999999999914735
	260	1	7.24000000000000021316	9.05000000000000071054	16.28999999999999914735
	261	1	7.24000000000000021316	10.85999999999999943157	0.00000000000000000000
	262	1	9.05000000000000071054	12.66999999999999992895	0.00000000000000000000
	263	1	9.05000000000000071054	10.85999999999999943157	1.81000000000000005329
	264	1	7.24000000000000021316	12.66999999999999992895	1.81000000000000005329
	265	1	7.24000000000000021316	10.85999999999999943157	3.62000000000000010658
	266	1	9.05000000000000071054	12.66999999999999992895	3.62000000000000010658
	267	1	9.05000000000000071054	10.85999999999999943157	5.42999999999999971578
	268	1	7.24000000000000021316	12.66999999999999992895	5.42999999999999971578
	269	1	7.24000000000000021316	10.85999999999999943157	7.24000000000000021316
	270	1	9.05000000000000071054	12.66999999999999992895	7.24000000000000021316
	271	1	9.05000000000000071054	10.85999999999999943157	9.05000000000000071054
	272	1	7.24000000000000021316	12.66999999999999992895	9.05000000000000071054
	273	1	7.24000000000000021316	10.85999999999999943157	10.85999999999999943157
	274	1	9.05000000000000071054	12.66999999999999992895	10.85999999999999943157
	275	1	9.05000000000000071054	10.85999999999999943157	12.66999999999999992895
	276	1	7.24000000000000021316	12.66999999999999992895	12.66999999999999992895
	277	1	7.24000000000000021316	10.85999999999999943157	14.48000000000000042633
	278	1	9.05000000000000071054	12.66999999999999992895	14.48000000000000042633
	279	1	9.05000000000000071054	10.85999999999999943157	16.28999999999999914735
	280	1	7.24000000000000021316	12.66999999999999992895	16.28999999999999914735
	281	1	7.24000000000000021316	14.48000000000000042633	0.00000000000000000000
	282	1	9.05000000000000071054	16.28999999999999914735	0.00000000000000000000
	283	1	9.05000000000000071054	14.48000000000000042633	1.81000000000000005329
	284	1	7.24000000000000021316	16.28999999999999914735	1.81000000000000005329
	285	1	7.24000000000000021316	14.48000000000000042633	3.62000000000000010658
	286	1	9.05000000000000071054	16.28999999999999914735	3.62000000000000010658
	287	1	9.05000000000000071054	14.48000000000000042633	5.42999999999999971578
	288	1	7.24000000000000021316	16.28999999999999914735	5.42999999999999971578
	289	1	7.24000000000000021316	14.48000000000000042633	7.24000000000000021316
	290	1	9.05000000000000071054	16.28999999999999914735	7.24000000000000021316
	291	1	9.05000000000000071054	14.48000000000000042633	9.05000000000000071054
	292	1	7.24000000000000021316	16.28999999999999914735	9.05000000000000071054
	293	1	7.24000000000000021316	14.48000000000000042633	10.85999999999999943157
	294	1	9.05000000000000071054	16.28999999999999914735	10.85999999999999943157
	295	1	9.05000000000000071054	14.48000000000000042633	12.66999999999999992895
	296	1	7.24000000000000021316	16.28999999999999914735	12.66999999999999992895
	297	1	7.24000000000000021316	14.48000000000000042633	14.48000000000000042633
	298	1	9.05000000000000071054	16.28999999999999914735	14.48000000000000042633
	299	1	9.05000000000000071054	14.48000000000000042633	16.28999999999999914735
	300	1	7.24000000000000021316	16.28999999999999914735	16.28999999999999914735
	301	1	10.85999999999999943157	0.00000000000000000000	0.00000000000000000000
	302	1	12.66999999999999992895	1.81000000000000005329	0.00000000000000000000
	303	1	12.66999999999999992895	0.00000000000000000000	1.81000000000000005329
	304	1	10.85999999999999943157	1.81000000000000005329	1.81000000000000005329
	305	1	10.85999999999999943157	0.00000000000000000000	3.62000000000000010658
	306	1	12.66999999999999992895	1.81000000000000005329	3.62000000000000010658
	307	1	12.66999999999999992895	0.00000000000000000000	5.42999999999999971578
	308	1	10.85999999999999943157	1.81000000000000005329	5.42999999999999971578
	309	1	10.85999999999999943157	0.00000000000000000000	7.24000000000000021316
	310	1	12.66999999999999992895	1.81000000000000005329	7.24000000000000021316
	311	1	12.66999999999999992895	0.00000000000000000000	9.05000000000000071054
	312	1	10.85999999999999943157	1.81000000000000005329	9.05000000000000071054
	313	1	10.85999999999999943157	0.00000000000000000000	10.85999999999999943157
	314	1	12.66999999999999992895	1.81000000000000005329	10.85999999999999943157
	315	1	12.66999999999999992895	0.00000000000000000000	12.66999999999999992895
	316	1	10.85999999999999943157	1.81000000000000005329	12.66999999999999992895
	317	1	10.85999999999999943157	0.00000000000000000000	14.48000000000000042633
	318	1	12.66999999999999992895	1.81000000000000005329	14.48000000000000042633
	319	1	12.66999999999999992895	0.00000000000000000000	16.28999999999999914735
	320	1	10.85999999999999943157	1.81000000000000005329	16.28999999999999914735
	321	1	10.85999999999999943157	3.62000000000000010658	0.00000000000000000000
	322	1	12.66999999999999992895	5.42999999999999971578	0.00000000000000000000
	323	1	12.66999999999999992895	3.62000000000000010658	1.81000000000000005329
	324	1	10.85999999999999943157	5.42999999999999971578	1.81000000000000005329
	325	1	10.85999999999999943157	3.62000000000000010658	3.62000000000000010658
	326	1	12.66999999999999992895	5.42999999999999971578	3.62000000000000010658
	327	1	12.66999999999999992895	3.62000000000000010658	5.42999999999999971578
	328	1	10.85999999999999943157	5.42999999999999971578	5.42999999999999971578
	329	1	10.85999999999999943157	3.62000000000000010658	7.24000000000000021316
	330	1	12.66999999999999992895	5.42999999999999971578	7.24000000000000021316
	331	1	12.66999999999999992895	3.62000000000000010658	9.05000000000000071054
	332	1	10.85999999999999943157	5.42999999999999971578	9.05000000000000071054
	333	1	10.85999999999999943157	3.62000000000000010658	10.85999999999999943157
	334	1	12.66999999999999992895	5.42999999999999971578	10.85999999999999943157
	335	1	12.66999999999999992895	3.62000000000000010658	12.66999999999999992895
	336	1	10.85999999999999943157	5.42999999999999971578	12.66999999999999992895
	337	1	10.85999999999999943157	3.62000000000000010658	14.48000000000000042633
	338	1	12.66999999999999992895	5.42999999999999971578	14.48000000000000042633
	339	1	12.66999999999999992895	3.62000000000000010658	16.28999999999999914735
	340	1	10.85999999999999943157	5.42999999999999971578	16.28999999999999914735
	341	1	10.85999999999999943157	7.24000000000000021316	0.00000000000000000000
	342	1	12.66999999999999992895	9.05000000000000071054	0.00000000000000000000
	343	1	12.66999999999999992895	7.24000000000000021316	1.81000000000000005329
	344	1	10.85999999999999943157	9.05000000000000071054	1.81000000000000005329
	345	1	10.85999999999999943157	7.24000000000000021316	3.62000000000000010658
	346	1	12.66999999999999992895	9.05000000000000071054	3.62000000000000010658
	347	1	12.66999999999999992895	7.24000000000000021316	5.42999999999999971578
	348	1	10.85999999999999943157	9.05000000000000071054	5.42999999999999971578
	349	1	10.85999999999999943157	7.24000000000000021316	7.24000000000000021316
	350	1	12.66999999999999992895	9.05000000000000071054	7.24000000000000021316
	351	1	12.66999999999999992895	7.24000000000000021316	9.05000000000000071054
	352	1	10.85999999999999943157	9.05000000000000071054	9.05000000000000071054
	353	1	10.85999999999999943157	7.24000000000000021316	10.85999999999999943157
	354	1	12.66999999999999992895	9.05000000000000071054	10.85999999999999943157
	355	1	12.66999999999999992895	7.24000000000000021316	12.66999999999999992895
	356	1	10.85999999999999943157	9.05000000000000071054	12.66999999999999992895
	357	1	10.85999999999999943157	7.24000000000000021316	14.48000000000000042633
	358	1	12.66999999999999992895	9.05000000000000071054	14.48000000000000042633
	359	1	12.66999999999999992895	7.24000000000000021316	16.28999999999999914735
	360	1	10.85999999999999943157	9.05000000000000071054	16.28999999999999914735
	361	1	10.85999999999999943157	10.85999999999999943157	0.00000000000000000000
	362	1	12.66999999999999992895	12.66999999999999992895	0.00000000000000000000
	363	1	12.66999999999999992895	10.85999999999999943157	1.81000000000000005329
	364	1	10.85999999999999943157	12.66999999999999992895	1.81000000000000005329
	365	1	10.85999999999999943157	10.85999999999999943157	3.62000000000000010658
	366	1	12.66999999999999992895	12.66999999999999992895	3.62000000000000010658
	367	1	12.66999999999999992895	10.85999999999999943157	5.42999999999999971578
	368	1	10.85999999999999943157	12.66999999999999992895	5.42999999999999971578
	369	1	10.85999999999999943157	10.85999999999999943157	7.24000000000000021316
	370	1	12.66999999999999992895	12.66999999999999992895	7.24000000000000021316
	371	1	12.66999999999999992895	10.85999999999999943157	9.05000000000000071054
	372	1	10.85999999999999943157	12.66999999999999992895	9.05000000000000071054
	373	1	10.85999999999999943157	10.85999999999999943157	10.85999999999999943157
	374	1	12.66999999999999992895	12.66999999999999992895	10.85999999999999943157
	375	1	12.66999999999999992895	10.85999999999999943157	12.66999999999999992895
	376	1	10.85999999999999943157	12.66999999999999992895	12.66999999999999992895
	377	1	10.85999999999999943157	10.85999999999999943157	14.48000000000000042633
	378	1	12.66999999999999992895	12.66999999999999992895	14.48000000000000042633
	379	1	12.66999999999999992895	10.85999999999999943157	16.28999999999999914735
	380	1	10.85999999999999943157	12.66999999999999992895	16.28999999999999914735
	381	1	10.85999999999999943157	14.48000000000000042633	0.00000000000000000000
	382	1	12.66999999999999992895	16.28999999999999914735	0.00000000000000000000
	383	1	12.66999999999999992895	14.48000000000000042633	1.81000000000000005329
	384	1	10.85999999999999943157	16.28999999999999914735	1.81000000000000005329
	385	1	10.85999999999999943157	14.48000000000000042633	3.62000000000000010658
	386	1	12.66999999999999992895	16.28999999999999914735	3.62000000000000010658
	387	1	12.66999999999999992895	14.48000000000000042633	5.42999999999999971578