ITEM: TIMESTEP
0
ITEM: NUMBER OF ATOMS
500
ITEM: BOX BOUNDS xy xz yz pp pp pp
0 18.1 0
0 18.1 0
0 18.1 0
ITEM: ATOMS id type x y z 
1 1 0 0 0 
2 1 1.81 1.81 0 
3 1 1.81 0 1.81 
4 1 0 1.81 1.81 
5 1 0 0 3.62 
6 1 1.81 1.81 3.62 
7 1 1.81 0 5.43 
8 1 0 1.81 5.43 
9 1 0 0 7.24 
10 1 1.81 1.81 7.24 
11 1 1.81 0 9.05 
12 1 0 1.81 9.05 
13 1 0 0 10.86 
14 1 1.81 1.81 10.86 
15 1 1.81 0 12.67 
16 1 0 1.81 12.67 
17 1 0 0 14.48 
18 1 1.81 1.81 14.48 
19 1 1.81 0 16.29 
20 1 0 1.81 16.29 
21 1 0 3.62 0 
22 1 1.81 5.43 0 
23 1 1.81 3.62 1.81 
24 1 0 5.43 1.81 
25 1 0 3.62 3.62 
26 1 1.81 5.43 3.62 
27 1 1.81 3.62 5.43 
28 1 0 5.43 5.43 
29 1 0 3.62 7.24 
30 1 1.81 5.43 7.24 
31 1 1.81 3.62 9.05 
32 1 0 5.43 9.05 
33 1 0 3.62 10.86 
34 1 1.81 5.43 10.86 
35 1 1.81 3.62 12.67 
36 1 0 5.43 12.67 
37 1 0 3.62 14.48 
38 1 1.81 5.43 14.48 
39 1 1.81 3.62 16.29 
40 1 0 5.43 16.29 
41 1 0 7.24 0 
42 1 1.81 9.05 0 
43 1 1.81 7.24 1.81 
44 1 0 9.05 1.81 
45 1 0 7.24 3.62 
46 1 1.81 9.05 3.62 
47 1 1.81 7.24 5.43 
48 1 0 9.05 5.43 
49 1 0 7.24 7.24 
50 1 1.81 9.05 7.24 
51 1 1.81 7.24 9.05 
52 1 0 9.05 9.05 
53 1 0 7.24 10.86 
54 1 1.81 9.05 10.86 
55 1 1.81 7.24 12.67 
56 1 0 9.05 12.67 
57 1 0 7.24 14.48 
58 1 1.81 9.05 14.48 
59 1 1.81 7.24 16.29 
60 1 0 9.05 16.29 
61 1 0 10.86 0 
62 1 1.81 12.67 0 
63 1 1.81 10.86 1.81 
64 1 0 12.67 1.81 
65 1 0 10.86 3.62 
66 1 1.81 12.67 3.62 
67 1 1.81 10.86 5.43 
68 1 0 12.67 5.43 
69 1 0 10.86 7.24 
70 1 1.81 12.67 7.24 
71 1 1.81 10.86 9.05 
72 1 0 12.67 9.05 
73 1 0 10.86 10.86 
74 1 1.81 12.67 10.86 
75 1 1.81 10.86 12.67 
76 1 0 12.67 12.67 
77 1 0 10.86 14.48 
78 1 1.81 12.67 14.48 
79 1 1.81 10.86 16.29 
80 1 0 12.67 16.29 
81 1 0 14.48 0 
82 1 1.81 16.29 0 
83 1 1.81 14.48 1.81 
84 1 0 16.29 1.81 
85 1 0 14.48 3.62 
86 1 1.81 16.29 3.62 
87 1 1.81 14.48 5.43 
88 1 0 16.29 5.43 
89 1 0 14.48 7.24 
90 1 1.81 16.29 7.24 
91 1 1.81 14.48 9.05 
92 1 0 16.29 9.05 
93 1 0 14.48 10.86 
94 1 1.81 16.29 10.86 
95 1 1.81 14.48 12.67 
96 1 0 16.29 12.67 
97 1 0 14.48 14.48 
98 1 1.81 16.29 14.48 
99 1 1.81 14.48 16.29 
100 1 0 16.29 16.29 
101 1 3.62 0 0 
102 1 5.43 1.81 0 
103 1 5.43 0 1.81 
104 1 3.62 1.81 1.81 
105 1 3.62 0 3.62 
106 1 5.43 1.81 3.62 
107 1 5.43 0 5.43 
108 1 3.62 1.81 5.43 
109 1 3.62 0 7.24 
110 1 5.43 1.81 7.24 
111 1 5.43 0 9.05 
112 1 3.62 1.81 9.05 
113 1 3.62 0 10.86 
114 1 5.43 1.81 10.86 
115 1 5.43 0 12.67 
116 1 3.62 1.81 12.67 
117 1 3.62 0 14.48 
118 1 5.43 1.81 14.48 
119 1 5.43 0 16.29 
120 1 3.62 1.81 16.29 
121 1 3.62 3.62 0 
122 1 5.43 5.43 0 
123 1 5.43 3.62 1.81 
124 1 3.62 5.43 1.81 
125 1 3.62 3.62 3.62 
126 1 5.43 5.43 3.62 
127 1 5.43 3.62 5.43 
128 1 3.62 5.43 5.43 
129 1 3.62 3.62 7.24 
130 1 5.43 5.43 7.24 
131 1 5.43 3.62 9.05 
132 1 3.62 5.43 9.05 
133 1 3.62 3.62 10.86 
134 1 5.43 5.43 10.86 
135 1 5.43 3.62 12.67 
136 1 3.62 5.43 12.67 
137 1 3.62 3.62 14.48 
138 1 5.43 5.43 14.48 
139 1 5.43 3.62 16.29 
140 1 3.62 5.43 16.29 
141 1 3.62 7.24 0 
142 1 5.43 9.05 0 
143 1 5.43 7.24 1.81 
144 1 3.62 9.05 1.81 
145 1 3.62 7.24 3.62 
146 1 5.43 9.05 3.62 
147 1 5.43 7.24 5.43 
148 1 3.62 9.05 5.43 
149 1 3.62 7.24 7.24 
150 1 5.43 9.05 7.24 
151 1 5.43 7.24 9.05 
152 1 3.62 9.05 9.05 
153 1 3.62 7.24 10.86 
154 1 5.43 9.05 10.86 
155 1 5.43 7.24 12.67 
156 1 3.62 9.05 12.67 
157 1 3.62 7.24 14.48 
158 1 5.43 9.05 14.48 
159 1 5.43 7.24 16.29 
160 1 3.62 9.05 16.29 
161 1 3.62 10.86 0 
162 1 5.43 12.67 0 
163 1 5.43 10.86 1.81 
164 1 3.62 12.67 1.81 
165 1 3.62 10.86 3.62 
166 1 5.43 12.67 3.62 
167 1 5.43 10.86 5.43 
168 1 3.62 12.67 5.43 
169 1 3.62 10.86 7.24 
170 1 5.43 12.67 7.24 
171 1 5.43 10.86 9.05 
172 1 3.62 12.67 9.05 
173 1 3.62 10.86 10.86 
174 1 5.43 12.67 10.86 
175 1 5.43 10.86 12.67 
176 1 3.62 12.67 12.67 
177 1 3.62 10.86 14.48 
178 1 5.43 12.67 14.48 
179 1 5.43 10.86 16.29 
180 1 3.62 12.67 16.29 
181 1 3.62 14.48 0 
182 1 5.43 16.29 0 
183 1 5.43 14.48 1.81 
184 1 3.62 16.29 1.81 
185 1 3.62 14.48 3.62 
186 1 5.43 16.29 3.62 
187 1 5.43 14.48 5.43 
188 1 3.62 16.29 5.43 
189 1 3.62 14.48 7.24 
190 1 5.43 16.29 7.24 
191 1 5.43 14.48 9.05 
192 1 3.62 16.29 9.05 
193 1 3.62 14.48 10.86 
194 1 5.43 16.29 10.86 
195 1 5.43 14.48 12.67 
196 1 3.62 16.29 12.67 
197 1 3.62 14.48 14.48 
198 1 5.43 16.29 14.48 
199 1 5.43 14.48 16.29 
200 1 3.62 16.29 16.29 
201 1 7.24 0 0 
202 1 9.05 1.81 0 
203 1 9.05 0 1.81 
204 1 7.24 1.81 1.81 
205 1 7.24 0 3.62 
206 1 9.05 1.81 3.62 
207 1 9.05 0 5.43 
208 1 7.24 1.81 5.43 
209 1 7.24 0 7.24 
210 1 9.05 1.81 7.24 
211 1 9.05 0 9.05 
212 1 7.24 1.81 9.05 
213 1 7.24 0 10.86 
214 1 9.05 1.81 10.86 
215 1 9.05 0 12.67 
216 1 7.24 1.81 12.67 
217 1 7.24 0 14.48 
218 1 9.05 1.81 14.48 
219 1 9.05 0 16.29 
220 1 7.24 1.81 16.29 
221 1 7.24 3.62 0 
222 1 9.05 5.43 0 
223 1 9.05 3.62 1.81 
224 1 7.24 5.43 1.81 
225 1 7.24 3.62 3.62 
226 1 9.05 5.43 3.62 
227 1 9.05 3.62 5.43 
228 1 7.24 5.43 5.43 
229 1 7.24 3.62 7.24 
230 1 9.05 5.43 7.24 
231 1 9.05 3.62 9.05 
232 1 7.24 5.43 9.05 
233 1 7.24 3.62 10.86 
234 1 9.05 5.43 10.86 
235 1 9.05 3.62 12.67 
236 1 7.24 5.43 12.67 
237 1 7.24 3.62 14.48 
238 1 9.05 5.43 14.48 
239 1 9.05 3.62 16.29 
240 1 7.24 5.43 16.29 
241 1 7.24 7.24 0 
242 1 9.05 9.05 0 
243 1 9.05 7.24 1.81 
244 1 7.24 9.05 1.81 
245 1 7.24 7.24 3.62 
246 1 9.05 9.05 3.62 
247 1 9.05 7.24 5.43 
248 1 7.24 9.05 5.43 
249 1 7.24 7.24 7.24 
250 1 9.05 9.05 7.24 
251 1 9.05 7.24 9.05 
252 1 7.24 9.05 9.05 
253 1 7.24 7.24 10.86 
254 1 9.05 9.05 10.86 
255 1 9.05 7.24 12.67 
256 1 7.24 9.05 12.67 
257 1 7.24 7.24 14.48 
258 1 9.05 9.05 14.48 
259 1 9.05 7.24 16.29 
260 1 7.24 9.05 16.29 
261 1 7.24 10.86 0 
262 1 9.05 12.67 0 
263 1 9.05 10.86 1.81 
264 1 7.24 12.67 1.81 
265 1 7.24 10.86 3.62 
266 1 9.05 12.67 3.62 
267 1 9.05 10.86 5.43 
268 1 7.24 12.67 5.43 
269 1 7.24 10.86 7.24 
270 1 9.05 12.67 7.24 
271 1 9.05 10.86 9.05 
272 1 7.24 12.67 9.05 
273 1 7.24 10.86 10.86 
274 1 9.05 12.67 10.86 
275 1 9.05 10.86 12.67 
276 1 7.24 12.67 12.67 
277 1 7.24 10.86 14.48 
278 1 9.05 12.67 14.48 
279 1 9.05 10.86 16.29 
280 1 7.24 12.67 16.29 
281 1 7.24 14.48 0 
282 1 9.05 16.29 0 
283 1 9.05 14.48 1.81 
284 1 7.24 16.29 1.81 
285 1 7.24 14.48 3.62 
286 1 9.05 16.29 3.62 
287 1 9.05 14.48 5.43 
288 1 7.24 16.29 5.43 
289 1 7.24 14.48 7.24 
290 1 9.05 16.29 7.24 
291 1 9.05 14.48 9.05 
292 1 7.24 16.29 9.05 
293 1 7.24 14.48 10.86 
294 1 9.05 16.29 10.86 
295 1 9.05 14.48 12.67 
296 1 7.24 16.29 12.67 
297 1 7.24 14.48 14.48 
298 1 9.05 16.29 14.48 
299 1 9.05 14.48 16.29 
300 1 7.24 16.29 16.29 
301 1 10.86 0 0 
302 1 12.67 1.81 0 
303 1 12.67 0 1.81 
304 1 10.86 1.81 1.81 
305 1 10.86 0 3.62 
306 1 12.67 1.81 3.62 
307 1 12.67 0 5.43 
308 1 10.86 1.81 5.43 
309 1 10.86 0 7.24 
310 1 12.67 1.81 7.24 
311 1 12.67 0 9.05 
312 1 10.86 1.81 9.05 
313 1 10.86 0 10.86 
314 1 12.67 1.81 10.86 
315 1 12.67 0 12.67 
316 1 10.86 1.81 12.67 
317 1 10.86 0 14.48 
318 1 12.67 1.81 14.48 
319 1 12.67 0 16.29 
320 1 10.86 1.81 16.29 
321 1 10.86 3.62 0 
322 1 12.67 5.43 0 
323 1 12.67 3.62 1.81 
324 1 10.86 5.43 1.81 
325 1 10.86 3.62 3.62 
326 1 12.67 5.43 3.62 
327 1 12.67 3.62 5.43 
328 1 10.86 5.43 5.43 
329 1 10.86 3.62 7.24 
330 1 12.67 5.43 7.24 
331 1 12.67 3.62 9.05 
332 1 10.86 5.43 9.05 
333 1 10.86 3.62 10.86 
334 1 12.67 5.43 10.86 
335 1 12.67 3.62 12.67 
336 1 10.86 5.43 12.67 
337 1 10.86 3.62 14.48 
338 1 12.67 5.43 14.48 
339 1 12.67 3.62 16.29 
340 1 10.86 5.43 16.29 
341 1 10.86 7.24 0 
342 1 12.67 9.05 0 
343 1 12.67 7.24 1.81 
344 1 10.86 9.05 1.81 
345 1 10.86 7.24 3.62 
346 1 12.67 9.05 3.62 
347 1 12.67 7.24 5.43 
348 1 10.86 9.05 5.43 
349 1 10.86 7.24 7.24 
350 1 12.67 9.05 7.24 
351 1 12.67 7.24 9.05 
352 1 10.86 9.05 9.05 
353 1 10.86 7.24 10.86 
354 1 12.67 9.05 10.86 
355 1 12.67 7.24 12.67 
356 1 10.86 9.05 12.67 
357 1 10.86 7.24 14.48 
358 1 12.67 9.05 14.48 
359 1 12.67 7.24 16.29 
360 1 10.86 9.05 16.29 
361 1 10.86 10.86 0 
362 1 12.67 12.67 0 
363 1 12.67 10.86 1.81 
364 1 10.86 12.67 1.81 
365 1 10.86 10.86 3.62 
366 1 12.67 12.67 3.62 
367 1 12.67 10.86 5.43 
368 1 10.86 12.67 5.43 
369 1 10.86 10.86 7.24 
370 1 12.67 12.67 7.24 
371 1 12.67 10.86 9.05 
372 1 10.86 12.67 9.05 
373 1 10.86 10.86 10.86 
374 1 12.67 12.67 10.86 
375 1 12.67 10.86 12.67 
376 1 10.86 12.67 12.67 
377 1 10.86 10.86 14.48 
378 1 12.67 12.67 14.48 
379 1 12.67 10.86 16.29 
380 1 10.86 12.67 16.29 
381 1 10.86 14.48 0 
382 1 12.67 16.29 0 
383 1 12.67 14.48 1.81 
384 1 10.86 16.29 1.81 
385 1 10.86 14.48 3.62 
386 1 12.67 16.29 3.62 
387 1 12.67 14.48 5.43 
388 1 10.86 16.29 5.43 
389 1 10.86 14.48 7.24 
390 1 12.67 16.29 7.24 
391 1 12.67 14.48 9.05 
392 1 10.86 16.29 9.05 
393 1 10.86 14.48 10.86 
394 1 12.67 16.29 10.86 
395 1 12.67 14.48 12.67 
396 1 10.86 16.29 12.67 
397 1 10.86 14.48 14.48 
398 1 12.67 16.29 14.48 
399 1 12.67 14.48 16.29 
400 1 10.86 16.29 16.29 
401 1 14.48 0 0 
402 1 16.29 1.81 0 
403 1 16.29 0 1.81 
404 1 14.48 1.81 1.81 
405 1 14.48 0 3.62 
406 1 16.29 1.81 3.62 
407 1 16.29 0 5.43 
408 1 14.48 1.81 5.43 
409 1 14.48 0 7.24 
410 1 16.29 1.81 7.24 
411 1 16.29 0 9.05 
412 1 14.48 1.81 9.05 
413 1 14.48 0 10.86 
414 1 16.29 1.81 10.86 
415 1 16.29 0 12.67 
416 1 14.48 1.81 12.67 
417 1 14.48 0 14.48 
418 1 16.29 1.81 14.48 
419 1 16.29 0 16.29 
420 1 14.48 1.81 16.29 
421 1 14.48 3.62 0 
422 1 16.29 5.43 0 
423 1 16.29 3.62 1.81 
424 1 14.48 5.43 1.81 
425 1 14.48 3.62 3.62 
426 1 16.29 5.43 3.62 
427 1 16.29 3.62 5.43 
428 1 14.48 5.43 5.43 
429 1 14.48 3.62 7.24 
430 1 16.29 5.43 7.24 
431 1 16.29 3.62 9.05 
432 1 14.48 5.43 9.05 
433 1 14.48 3.62 10.86 
434 1 16.29 5.43 10.86 
435 1 16.29 3.62 12.67 
436 1 14.48 5.43 12.67 
437 1 14.48 3.62 14.48 
438 1 16.29 5.43 14.48 
439 1 16.29 3.62 16.29 
440 1 14.48 5.43 16.29 
441 1 14.48 7.24 0 
442 1 16.29 9.05 0 
443 1 16.29 7.24 1.81 
444 1 14.48 9.05 1.81 
445 1 14.48 7.24 3.62 
446 1 16.29 9.05 3.62 
447 1 16.29 7.24 5.43 
448 1 14.48 9.05 5.43 
449 1 14.48 7.24 7.24 
450 1 16.29 9.05 7.24 
451 1 16.29 7.24 9.05 
452 1 14.48 9.05 9.05 
453 1 14.48 7.24 10.86 
454 1 16.29 9.05 10.86 
455 1 16.29 7.24 12.67 
456 1 14.48 9.05 12.67 
457 1 14.48 7.24 14.48 
458 1 16.29 9.05 14.48 
459 1 16.29 7.24 16.29 
460 1 14.48 9.05 16.29 
461 1 14.48 10.86 0 
462 1 16.29 12.67 0 
463 1 16.29 10.86 1.81 
464 1 14.48 12.67 1.81 
465 1 14.48 10.86 3.62 
466 1 16.29 12.67 3.62 
467 1 16.29 10.86 5.43 
468 1 14.48 12.67 5.43 
469 1 14.48 10.86 7.24 
470 1 16.29 12.67 7.24 
471 1 16.29 10.86 9.05 
472 1 14.48 12.67 9.05 
473 1 14.48 10.86 10.86 
474 1 16.29 12.67 10.86 
475 1 16.29 10.86 12.67 
476 1 14.48 12.67 12.67 
477 1 14.48 10.86 14.48 
478 1 16.29 12.67 14.48 
479 1 16.29 10.86 16.29 
480 1 14.48 12.67 16.29 
481 1 14.48 14.48 0 
482 1 16.29 16.29 0 
483 1 16.29 14.48 1.81 
484 1 14.48 16.29 1.81 
485 1 14.48 14.48 3.62 
486 1 16.29 16.29 3.62 
487 1 16.29 14.48 5.43 
488 1 14.48 16.29 5.43 
489 1 14.48 14.48 7.24 
490 1 16.29 16.29 7.24 
491 1 16.29 14.48 9.05 
492 1 14.48 16.29 9.05 
493 1 14.48 14.48 10.86 
494 1 16.29 16.29 10.86 
495 1 16.29 14.48 12.67 
496 1 14.48 16.29 12.67 
497 1 14.48 14.48 14.48 
498 1 16.29 16.29 14.48 
499 1 16.29 14.48 16.29 
500 1 14.48 16.29 16.29 
ITEM: TIMESTEP
1
ITEM: NUMBER OF ATOMS
500
ITEM: BOX BOUNDS xy xz yz pp pp pp
0.00905 18.091 0
0.00905 18.091 0
0.00905 18.091 0
ITEM: ATOMS id type x y z 
1 1 0.00905 0.00905 0.00905 
2 1 1.81724 1.81724 0.00905 
3 1 1.81724 0.00905 1.81724 
4 1 0.00905 1.81724 1.81724 
5 1 0.00905 0.00905 3.62543 
6 1 1.81724 1.81724 3.62543 
7 1 1.81724 0.00905 5.43362 
8 1 0.00905 1.81724 5.43362 
9 1 0.00905 0.00905 7.24181 
10 1 1.81724 1.81724 7.24181 
11 1 1.81724 0.00905 9.05 
12 1 0.00905 1.81724 9.05 
13 1 0.00905 0.00905 10.8582 
14 1 1.81724 1.81724 10.8582 
15 1 1.81724 0.00905 12.6664 
16 1 0.00905 1.81724 12.6664 
17 1 0.00905 0.00905 14.4746 
18 1 1.81724 1.81724 14.4746 
19 1 1.81724 0.00905 16.2828 
20 1 0.00905 1.81724 16.2828 
21 1 0.00905 3.62543 0.00905 
22 1 1.81724 5.43362 0.00905 
23 1 1.81724 3.62543 1.81724 
24 1 0.00905 5.43362 1.81724 
25 1 0.00905 3.62543 3.62543 
26 1 1.81724 5.43362 3.62543 
27 1 1.81724 3.62543 5.43362 
28 1 0.00905 5.43362 5.43362 
29 1 0.00905 3.62543 7.24181 
30 1 1.81724 5.43362 7.24181 
31 1 1.81724 3.62543 9.05 
32 1 0.00905 5.43362 9.05 
33 1 0.00905 3.62543 10.8582 
34 1 1.81724 5.43362 10.8582 
35 1 1.81724 3.62543 12.6664 
36 1 0.00905 5.43362 12.6664 
37 1 0.00905 3.62543 14.4746 
38 1 1.81724 5.43362 14.4746 
39 1 1.81724 3.62543 16.2828 
40 1 0.00905 5.43362 16.2828 
41 1 0.00905 7.24181 0.00905 
42 1 1.81724 9.05 0.00905 
43 1 1.81724 7.24181 1.81724 
44 1 0.00905 9.05 1.81724 
45 1 0.00905 7.24181 3.62543 
46 1 1.81724 9.05 3.62543 
47 1 1.81724 7.24181 5.43362 
48 1 0.00905 9.05 5.43362 
49 1 0.00905 7.24181 7.24181 
50 1 1.81724 9.05 7.24181 
51 1 1.81724 7.24181 9.05 
52 1 0.00905 9.05 9.05 
53 1 0.00905 7.24181 10.8582 
54 1 1.81724 9.05 10.8582 
55 1 1.81724 7.24181 12.6664 
56 1 0.00905 9.05 12.6664 
57 1 0.00905 7.24181 14.4746 
58 1 1.81724 9.05 14.4746 
59 1 1.81724 7.24181 16.2828 
60 1 0.00905 9.05 16.2828 
61 1 0.00905 10.8582 0.00905 
62 1 1.81724 12.6664 0.00905 
63 1 1.81724 10.8582 1.81724 
64 1 0.00905 12.6664 1.81724 
65 1 0.00905 10.8582 3.62543 
66 1 1.81724 12.6664 3.62543 
67 1 1.81724 10.8582 5.43362 
68 1 0.00905 12.6664 5.43362 
69 1 0.00905 10.8582 7.24181 
70 1 1.81724 12.6664 7.24181 
71 1 1.81724 10.8582 9.05 
72 1 0.00905 12.6664 9.05 
73 1 0.00905 10.8582 10.8582 
74 1 1.81724 12.6664 10.8582 
75 1 1.81724 10.8582 12.6664 
76 1 0.00905 12.6664 12.6664 
77 1 0.00905 10.8582 14.4746 
78 1 1.81724 12.6664 14.4746 
79 1 1.81724 10.8582 16.2828 
80 1 0.00905 12.6664 16.2828 
81 1 0.00905 14.4746 0.00905 
82 1 1.81724 16.2828 0.00905 
83 1 1.81724 14.4746 1.81724 
84 1 0.00905 16.2828 1.81724 
85 1 0.00905 14.4746 3.62543 
86 1 1.81724 16.2828 3.62543 
87 1 1.81724 14.4746 5.43362 
88 1 0.00905 16.2828 5.43362 
89 1 0.00905 14.4746 7.24181 
90 1 1.81724 16.2828 7.24181 
91 1 1.81724 14.4746 9.05 
92 1 0.00905 16.2828 9.05 
93 1 0.00905 14.4746 10.8582 
94 1 1.81724 16.2828 10.8582 
95 1 1.81724 14.4746 12.6664 
96 1 0.00905 16.2828 12.6664 
97 1 0.00905 14.4746 14.4746 
98 1 1.81724 16.2828 14.4746 
99 1 1.81724 14.4746 16.2828 
100 1 0.00905 16.2828 16.2828 
101 1 3.62543 0.00905 0.00905 
102 1 5.43362 1.81724 0.00905 
103 1 5.43362 0.00905 1.81724 
104 1 3.62543 1.81724 1.81724 
105 1 3.62543 0.00905 3.62543 
106 1 5.43362 1.81724 3.62543 
107 1 5.43362 0.00905 5.43362 
108 1 3.62543 1.81724 5.43362 
109 1 3.62543 0.00905 7.24181 
110 1 5.43362 1.81724 7.24181 
111 1 5.43362 0.00905 9.05 
112 1 3.62543 1.81724 9.05 
113 1 3.62543 0.00905 10.8582 
114 1 5.43362 1.81724 10.8582 
115 1 5.43362 0.00905 12.6664 
116 1 3.62543 1.81724 12.6664 
117 1 3.62543 0.00905 14.4746 
118 1 5.43362 1.81724 14.4746 
119 1 5.43362 0.00905 16.2828 
120 1 3.62543 1.81724 16.2828 
121 1 3.62543 3.62543 0.00905 
122 1 5.43362 5.43362 0.00905 
123 1 5.43362 3.62543 1.81724 
124 1 3.62543 5.43362 1.81724 
125 1 3.62543 3.62543 3.62543 
126 1 5.43362 5.43362 3.62543 
127 1 5.43362 3.62543 5.43362 
128 1 3.62543 5.43362 5.43362 
129 1 3.62543 3.62543 7.24181 
130 1 5.43362 5.43362 7.24181 
131 1 5.43362 3.62543 9.05 
132 1 3.62543 5.43362 9.05 
133 1 3.62543 3.62543 10.8582 
134 1 5.43362 5.43362 10.8582 
135 1 5.43362 3.62543 12.6664 
136 1 3.62543 5.43362 12.6664 
137 1 3.62543 3.62543 14.4746 
138 1 5.43362 5.43362 14.4746 
139 1 5.43362 3.62543 16.2828 
140 1 3.62543 5.43362 16.2828 
141 1 3.62543 7.24181 0.00905 
142 1 5.43362 9.05 0.00905 
143 1 5.43362 7.24181 1.81724 
144 1 3.62543 9.05 1.81724 
145 1 3.62543 7.24181 3.62543 
146 1 5.43362 9.05 3.62543 
147 1 5.43362 7.24181 5.43362 
148 1 3.62543 9.05 5.43362 
149 1 3.62543 7.24181 7.24181 
150 1 5.43362 9.05 7.24181 
151 1 5.43362 7.24181 9.05 
152 1 3.62543 9.05 9.05 
153 1 3.62543 7.24181 10.8582 
154 1 5.43362 9.05 10.8582 
155 1 5.43362 7.24181 12.6664 
156 1 3.62543 9.05 12.6664 
157 1 3.62543 7.24181 14.4746 
158 1 5.43362 9.05 14.4746 
159 1 5.43362 7.24181 16.2828 
160 1 3.62543 9.05 16.2828 
161 1 3.62543 10.8582 0.00905 
162 1 5.43362 12.6664 0.00905 
163 1 5.43362 10.8582 1.81724 
164 1 3.62543 12.6664 1.81724 
165 1 3.62543 10.8582 3.62543 
166 1 5.43362 12.6664 3.62543 
167 1 5.43362 10.8582 5.43362 
168 1 3.62543 12.6664 5.43362 
169 1 3.62543 10.8582 7.24181 
170 1 5.43362 12.6664 7.24181 
171 1 5.43362 10.8582 9.05 
172 1 3.62543 12.6664 9.05 
173 1 3.62543 10.8582 10.8582 
174 1 5.43362 12.6664 10.8582 
175 1 5.43362 10.8582 12.6664 
176 1 3.62543 12.6664 12.6664 
177 1 3.62543 10.8582 14.4746 
178 1 5.43362 12.6664 14.4746 
179 1 5.43362 10.8582 16.2828 
180 1 3.62543 12.6664 16.2828 
181 1 3.62543 14.4746 0.00905 
182 1 5.43362 16.2828 0.00905 
183 1 5.43362 14.4746 1.81724 
184 1 3.62543 16.2828 1.81724 
185 1 3.62543 14.4746 3.62543 
186 1 5.43362 16.2828 3.62543 
187 1 5.43362 14.4746 5.43362 
188 1 3.62543 16.2828 5.43362 
189 1 3.62543 14.4746 7.24181 
190 1 5.43362 16.2828 7.24181 
191 1 5.43362 14.4746 9.05 
192 1 3.62543 16.2828 9.05 
193 1 3.62543 14.4746 10.8582 
194 1 5.43362 16.2828 10.8582 
195 1 5.43362 14.4746 12.6664 
196 1 3.62543 16.2828 12.6664 
197 1 3.62543 14.4746 14.4746 
198 1 5.43362 16.2828 14.4746 
199 1 5.43362 14.4746 16.2828 
200 1 3.62543 16.2828 16.2828 
201 1 7.24181 0.00905 0.00905 
202 1 9.05 1.81724 0.00905 
203 1 9.05 0.00905 1.81724 
204 1 7.24181 1.81724 1.81724 
205 1 7.24181 0.00905 3.62543 
206 1 9.05 1.81724 3.62543 
207 1 9.05 0.00905 5.43362 
208 1 7.24181 1.81724 5.43362 
209 1 7.24181 0.00905 7.24181 
210 1 9.05 1.81724 7.24181 
211 1 9.05 0.00905 9.05 
212 1 7.24181 1.81724 9.05 
213 1 7.24181 0.00905 10.8582 
214 1 9.05 1.81724 10.8582 
215 1 9.05 0.00905 12.6664 
216 1 7.24181 1.81724 12.6664 
217 1 7.24181 0.00905 14.4746 
218 1 9.05 1.81724 14.4746 
219 1 9.05 0.00905 16.2828 
220 1 7.24181 1.81724 16.2828 
221 1 7.24181 3.62543 0.00905 
222 1 9.05 5.43362 0.00905 
223 1 9.05 3.62543 1.81724 
224 1 7.24181 5.43362 1.81724 
225 1 7.24181 3.62543 3.62543 
226 1 9.05 5.43362 3.62543 
227 1 9.05 3.62543 5.43362 
228 1 7.24181 5.43362 5.43362 
229 1 7.24181 3.62543 7.24181 
230 1 9.05 5.43362 7.24181 
231 1 9.05 3.62543 9.05 
232 1 7.24181 5.43362 9.05 
233 1 7.24181 3.62543 10.8582 
234 1 9.05 5.43362 10.8582 
235 1 9.05 3.62543 12.6664 
236 1 7.24181 5.43362 12.6664 
237 1 7.24181 3.62543 14.4746 
238 1 9.05 5.43362 14.4746 
239 1 9.05 3.62543 16.2828 
240 1 7.24181 5.43362 16.2828 
241 1 7.24181 7.24181 0.00905 
242 1 9.05 9.05 0.00905 
243 1 9.05 7.24181 1.81724 
244 1 7.24181 9.05 1.81724 
245 1 7.24181 7.24181 3.62543 
246 1 9.05 9.05 3.62543 
247 1 9.05 7.24181 5.43362 
248 1 7.24181 9.05 5.43362 
249 1 7.24181 7.24181 7.24181 
250 1 9.05 9.05 7.24181 
251 1 9.05 7.24181 9.05 
252 1 7.24181 9.05 9.05 
253 1 7.24181 7.24181 10.8582 
254 1 9.05 9.05 10.8582 
255 1 9.05 7.24181 12.6664 
256 1 7.24181 9.05 12.6664 
257 1 7.24181 7.24181 14.4746 
258 1 9.05 9.05 14.4746 
259 1 9.05 7.24181 16.2828 
260 1 7.24181 9.05 16.2828 
261 1 7.24181 10.8582 0.00905 
262 1 9.05 12.6664 0.00905 
263 1 9.05 10.8582 1.81724 
264 1 7.24181 12.6664 1.81724 
265 1 7.24181 10.8582 3.62543 
266 1 9.05 12.6664 3.62543 
267 1 9.05 10.8582 5.43362 
268 1 7.24181 12.6664 5.43362 
269 1 7.24181 10.8582 7.24181 
270 1 9.05 12.6664 7.24181 
271 1 9.05 10.8582 9.05 
272 1 7.24181 12.6664 9.05 
273 1 7.24181 10.8582 10.8582 
274 1 9.05 12.6664 10.8582 
275 1 9.05 10.8582 12.6664 
276 1 7.24181 12.6664 12.6664 
277 1 7.24181 10.8582 14.4746 
278 1 9.05 12.6664 14.4746 
279 1 9.05 10.8582 16.2828 
280 1 7.24181 12.6664 16.2828 
281 1 7.24181 14.4746 0.00905 
282 1 9.05 16.2828 0.00905 
283 1 9.05 14.4746 1.81724 
284 1 7.24181 16.2828 1.81724 
285 1 7.24181 14.4746 3.62543 
286 1 9.05 16.2828 3.62543 
287 1 9.05 14.4746 5.43362 
288 1 7.24181 16.2828 5.43362 
289 1 7.24181 14.4746 7.24181 
290 1 9.05 16.2828 7.24181 
291 1 9.05 14.4746 9.05 
292 1 7.24181 16.2828 9.05 
293 1 7.24181 14.4746 10.8582 
294 1 9.05 16.2828 10.8582 
295 1 9.05 14.4746 12.6664 
296 1 7.24181 16.2828 12.6664 
297 1 7.24181 14.4746 14.4746 
298 1 9.05 16.2828 14.4746 
299 1 9.05 14.4746 16.2828 
300 1 7.24181 16.2828 16.2828 
301 1 10.8582 0.00905 0.00905 
302 1 12.6664 1.81724 0.00905 
303 1 12.6664 0.00905 1.81724 
304 1 10.8582 1.81724 1.81724 
305 1 10.8582 0.00905 3.62543 
306 1 12.6664 1.81724 3.62543 
307 1 12.6664 0.00905 5.43362 
308 1 10.8582 1.81724 5.43362 
309 1 10.8582 0.00905 7.24181 
310 1 12.6664 1.81724 7.24181 
311 1 12.6664 0.00905 9.05 
312 1 10.8582 1.81724 9.05 
313 1 10.8582 0.00905 10.8582 
314 1 12.6664 1.81724 10.8582 
315 1 12.6664 0.00905 12.6664 
316 1 10.8582 1.81724 12.6664 
317 1 10.8582 0.00905 14.4746 
318 1 12.6664 1.81724 14.4746 
319 1 12.6664 0.00905 16.2828 
320 1 10.8582 1.81724 16.2828 
321 1 10.8582 3.62543 0.00905 
322 1 12.6664 5.43362 0.00905 
323 1 12.6664 3.62543 1.81724 
324 1 10.8582 5.43362 1.81724 
325 1 10.8582 3.62543 3.62543 
326 1 12.6664 5.43362 3.62543 
327 1 12.6664 3.62543 5.43362 
328 1 10.8582 5.43362 5.43362 
329 1 10.8582 3.62543 7.24181 
330 1 12.6664 5.43362 7.24181 
331 1 12.6664 3.62543 9.05 
332 1 10.8582 5.43362 9.05 
333 1 10.8582 3.62543 10.8582 
334 1 12.6664 5.43362 10.8582 
335 1 12.6664 3.62543 12.6664 
336 1 10.8582 5.43362 12.6664 
337 1 10.8582 3.62543 14.4746 
338 1 12.6664 5.43362 14.4746 
339 1 12.6664 3.62543 16.2828 
340 1 10.8582 5.43362 16.2828 
341 1 10.8582 7.24181 0.00905 
342 1 12.6664 9.05 0.00905 
343 1 12.6664 7.24181 1.81724 
344 1 10.8582 9.05 1.81724 
345 1 10.8582 7.24181 3.62543 
346 1 12.6664 9.05 3.62543 
347 1 12.6664 7.24181 5.43362 
348 1 10.8582 9.05 5.43362 
349 1 10.8582 7.24181 7.24181 
350 1 12.6664 9.05 7.24181 
351 1 12.6664 7.24181 9.05 
352 1 10.8582 9.05 9.05 
353 1 10.8582 7.24181 10.8582 
354 1 12.6664 9.05 10.8582 
355 1 12.6664 7.24181 12.6664 
356 1 10.8582 9.05 12.6664 
357 1 10.8582 7.24181 14.4746 
358 1 12.6664 9.05 14.4746 
359 1 12.6664 7.24181 16.2828 
360 1 10.8582 9.05 16.2828 
361 1 10.8582 10.8582 0.00905 
362 1 12.6664 12.6664 0.00905 
363 1 12.6664 10.8582 1.81724 
364 1 10.8582 12.6664 1.81724 
365 1 10.8582 10.8582 3.62543 
366 1 12.6664 12.6664 3.62543 
367 1 12.6664 10.8582 5.43362 
368 1 10.8582 12.6664 5.43362 
369 1 10.8582 10.8582 7.24181 
370 1 12.6664 12.6664 7.24181 
371 1 12.6664 10.8582 9.05 
372 1 10.8582 12.6664 9.05 
373 1 10.8582 10.8582 10.8582 
374 1 12.6664 12.6664 10.8582 
375 1 12.6664 10.8582 12.6664 
376 1 10.8582 12.6664 12.6664 
377 1 10.8582 10.8582 14.4746 
378 1 12.6664 12.6664 14.4746 
379 1 12.6664 10.8582 16.2828 
380 1 10.8582 12.6664 16.2828 
381 1 10.8582 14.4746 0.00905 
382 1 12.6664 16.2828 0.00905 
383 1 12.6664 14.4746 1.81724 
384 1 10.8582 16.2828 1.81724 
385 1 10.8582 14.4746 3.62543 
386 1 12.6664 16.2828 3.62543 
387 1 12.6664 14.4746 5.43362 
388 1 10.8582 16.2828 5.43362 
389 1 10.8582 14.4746 7.24181 
390 1 12.6664 16.2828 7.24181 
391 1 12.6664 14.4746 9.05 
392 1 10.8582 16.2828 9.05 
393 1 10.8582 14.4746 10.8582 
394 1 12.6664 16.2828 10.8582 
395 1 12.6664 14.4746 12.6664 
396 1 10.8582 16.2828 12.6664 
397 1 10.8582 14.4746 14.4746 
398 1 12.6664 16.2828 14.4746 
399 1 12.6664 14.4746 16.2828 
400 1 10.8582 16.2828 16.2828 
401 1 14.4746 0.00905 0.00905 
402 1 16.2828 1.81724 0.00905 
403 1 16.2828 0.00905 1.81724 
404 1 14.4746 1.81724 1.81724 
405 1 14.4746 0.00905 3.62543 
406 1 16.2828 1.81724 3.62543 
407 1 16.2828 0.00905 5.43362 
408 1 14.4746 1.81724 5.43362 
409 1 14.4746 0.00905 7.24181 
410 1 16.2828 1.81724 7.24181 
411 1 16.2828 0.00905 9.05 
412 1 14.4746 1.81724 9.05 
413 1 14.4746 0.00905 10.8582 
414 1 16.2828 1.81724 10.8582 
415 1 16.2828 0.00905 12.6664 
416 1 14.4746 1.81724 12.6664 
417 1 14.4746 0.00905 14.4746 
418 1 16.2828 1.81724 14.4746 
419 1 16.2828 0.00905 16.2828 
420 1 14.4746 1.81724 16.2828 
421 1 14.4746 3.62543 0.00905 
422 1 16.2828 5.43362 0.00905 
423 1 16.2828 3.62543 1.81724 
424 1 14.4746 5.43362 1.81724 
425 1 14.4746 3.62543 3.62543 
426 1 16.2828 5.43362 3.62543 
427 1 16.2828 3.62543 5.43362 
428 1 14.4746 5.43362 5.43362 
429 1 14.4746 3.62543 7.24181 
430 1 16.2828 5.43362 7.24181 
431 1 16.2828 3.62543 9.05 
432 1 14.4746 5.43362 9.05 
433 1 14.4746 3.62543 10.8582 
434 1 16.2828 5.43362 10.8582 
435 1 16.2828 3.62543 12.6664 
436 1 14.4746 5.43362 12.6664 
437 1 14.4746 3.62543 14.4746 
438 1 16.2828 5.43362 14.4746 
439 1 16.2828 3.62543 16.2828 
440 1 14.4746 5.43362 16.2828 
441 1 14.4746 7.24181 0.00905 
442 1 16.2828 9.05 0.00905 
443 1 16.2828 7.24181 1.81724 
444 1 14.4746 9.05 1.81724 
445 1 14.4746 7.24181 3.62543 
446 1 16.2828 9.05 3.62543 
447 1 16.2828 7.24181 5.43362 
448 1 14.4746 9.05 5.43362 
449 1 14.4746 7.24181 7.24181 
450 1 16.2828 9.05 7.24181 
451 1 16.2828 7.24181 9.05 
452 1 14.4746 9.05 9.05 
453 1 14.4746 7.24181 10.8582 
454 1 16.2828 9.05 10.8582 
455 1 16.2828 7.24181 12.6664 
456 1 14.4746 9.05 12.6664 
457 1 14.4746 7.24181 14.4746 
458 1 16.2828 9.05 14.4746 
459 1 16.2828 7.24181 16.2828 
460 1 14.4746 9.05 16.2828 
461 1 14.4746 10.8582 0.00905 
462 1 16.2828 12.6664 0.00905 
463 1 16.2828 10.8582 1.81724 
464 1 14.4746 12.6664 1.81724 
465 1 14.4746 10.8582 3.62543 
466 1 16.2828 12.6664 3.62543 
467 1 16.2828 10.8582 5.43362 
468 1 14.4746 12.6664 5.43362 
469 1 14.4746 10.8582 7.24181 
470 1 16.2828 12.6664 7.24181 
471 1 16.2828 10.8582 9.05 
472 1 14.4746 12.6664 9.05 
473 1 14.4746 10.8582 10.8582 
474 1 16.2828 12.6664 10.8582 
475 1 16.2828 10.8582 12.6664 
476 1 14.4746 12.6664 12.6664 
477 1 14.4746 10.8582 14.4746 
478 1 16.2828 12.6664 14.4746 
479 1 16.2828 10.8582 16.2828 
480 1 14.4746 12.6664 16.2828 
481 1 14.4746 14.4746 0.00905 
482 1 16.2828 16.2828 0.00905 
483 1 16.2828 14.4746 1.81724 
484 1 14.4746 16.2828 1.81724 
485 1 14.4746 14.4746 3.62543 
486 1 16.2828 16.2828 3.62543 
487 1 16.2828 14.4746 5.43362 
488 1 14.4746 16.2828 5.43362 
489 1 14.4746 14.4746 7.24181 
490 1 16.2828 16.2828 7.24181 
491 1 16.2828 14.4746 9.05 
492 1 14.4746 16.2828 9.05 
493 1 14.4746 14.4746 10.8582 
494 1 16.2828 16.2828 10.8582 
495 1 16.2828 14.4746 12.6664 
496 1 14.4746 16.2828 12.6664 
497 1 14.4746 14.4746 14.4746 
498 1 16.2828 16.2828 14.4746 
499 1 16.2828 14.4746 16.2828 
500 1 14.4746 16.2828 16.2828 
ITEM: TIMESTEP
2
ITEM: NUMBER OF ATOMS
500
ITEM: BOX BOUNDS xy xz yz pp pp pp
0.0167037 18.0833 0
0.0167037 18.0833 0
0.0167037 18.0833 0
ITEM: ATOMS id type x y z 
1 1 0.0167037 0.0167037 0.0167037 
2 1 1.82336 1.82336 0.0167037 
3 1 1.82336 0.0167037 1.82336 
4 1 0.0167037 1.82336 1.82336 
5 1 0.0167037 0.0167037 3.63002 
6 1 1.82336 1.82336 3.63002 
7 1 1.82336 0.0167037 5.43668 
8 1 0.0167037 1.82336 5.43668 
9 1 0.0167037 0.0167037 7.24334 
10 1 1.82336 1.82336 7.24334 
11 1 1.82336 0.0167037 9.05 
12 1 0.0167037 1.82336 9.05 
13 1 0.0167037 0.0167037 10.8567 
14 1 1.82336 1.82336 10.8567 
15 1 1.82336 0.0167037 12.6633 
16 1 0.0167037 1.82336 12.6633 
17 1 0.0167037 0.0167037 14.47 
18 1 1.82336 1.82336 14.47 
19 1 1.82336 0.0167037 16.2766 
20 1 0.0167037 1.82336 16.2766 
21 1 0.0167037 3.63002 0.0167037 
22 1 1.82336 5.43668 0.0167037 
23 1 1.82336 3.63002 1.82336 
24 1 0.0167037 5.43668 1.82336 
25 1 0.0167037 3.63002 3.63002 
26 1 1.82336 5.43668 3.63002 
27 1 1.82336 3.63002 5.43668 
28 1 0.0167037 5.43668 5.43668 
29 1 0.0167037 3.63002 7.24334 
30 1 1.82336 5.43668 7.24334 
31 1 1.82336 3.63002 9.05 
32 1 0.0167037 5.43668 9.05 
33 1 0.0167037 3.63002 10.8567 
34 1 1.82336 5.43668 10.8567 
35 1 1.82336 3.63002 12.6633 
36 1 0.0167037 5.43668 12.6633 
37 1 0.0167037 3.63002 14.47 
38 1 1.82336 5.43668 14.47 
39 1 1.82336 3.63002 16.2766 
40 1 0.0167037 5.43668 16.2766 
41 1 0.0167037 7.24334 0.0167037 
42 1 1.82336 9.05 0.0167037 
43 1 1.82336 7.24334 1.82336 
44 1 0.0167037 9.05 1.82336 
45 1 0.0167037 7.24334 3.63002 
46 1 1.82336 9.05 3.63002 
47 1 1.82336 7.24334 5.43668 
48 1 0.0167037 9.05 5.43668 
49 1 0.0167037 7.24334 7.24334 
50 1 1.82336 9.05 7.24334 
51 1 1.82336 7.24334 9.05 
52 1 0.0167037 9.05 9.05 
53 1 0.0167037 7.24334 10.8567 
54 1 1.82336 9.05 10.8567 
55 1 1.82336 7.24334 12.6633 
56 1 0.0167037 9.05 12.6633 
57 1 0.0167037 7.24334 14.47 
58 1 1.82336 9.05 14.47 
59 1 1.82336 7.24334 16.2766 
60 1 0.0167037 9.05 16.2766 
61 1 0.0167037 10.8567 0.0167037 
62 1 1.82336 12.6633 0.0167037 
63 1 1.82336 10.8567 1.82336 
64 1 0.0167037 12.6633 1.82336 
65 1 0.0167037 10.8567 3.63002 
66 1 1.82336 12.6633 3.63002 
67 1 1.82336 10.8567 5.43668 
68 1 0.0167037 12.6633 5.43668 
69 1 0.0167037 10.8567 7.24334 
70 1 1.82336 12.6633 7.24334 
71 1 1.82336 10.8567 9.05 
72 1 0.0167037 12.6633 9.05 
73 1 0.0167037 10.8567 10.8567 
74 1 1.82336 12.6633 10.8567 
75 1 1.82336 10.8567 12.6633 
76 1 0.0167037 12.6633 12.6633 
77 1 0.0167037 10.8567 14.47 
78 1 1.82336 12.6633 14.47 
79 1 1.82336 10.8567 16.2766 
80 1 0.0167037 12.6633 16.2766 
81 1 0.0167037 14.47 0.0167037 
82 1 1.82336 16.2766 0.0167037 
83 1 1.82336 14.47 1.82336 
84 1 0.0167037 16.2766 1.82336 
85 1 0.0167037 14.47 3.63002 
86 1 1.82336 16.2766 3.63002 
87 1 1.82336 14.47 5.43668 
88 1 0.0167037 16.2766 5.43668 
89 1 0.0167037 14.47 7.24334 
90 1 1.82336 16.2766 7.24334 
91 1 1.82336 14.47 9.05 
92 1 0.0167037 16.2766 9.05 
93 1 0.0167037 14.47 10.8567 
94 1 1.82336 16.2766 10.8567 
95 1 1.82336 14.47 12.6633 
96 1 0.0167037 16.2766 12.6633 
97 1 0.0167037 14.47 14.47 
98 1 1.82336 16.2766 14.47 
99 1 1.82336 14.47 16.2766 
100 1 0.0167037 16.2766 16.2766 
101 1 3.63002 0.0167037 0.0167037 
102 1 5.43668 1.82336 0.0167037 
103 1 5.43668 0.0167037 1.82336 
104 1 3.63002 1.82336 1.82336 
105 1 3.63002 0.0167037 3.63002 
106 1 5.43668 1.82336 3.63002 
107 1 5.43668 0.0167037 5.43668 
108 1 3.63002 1.82336 5.43668 
109 1 3.63002 0.0167037 7.24334 
110 1 5.43668 1.82336 7.24334 
111 1 5.43668 0.0167037 9.05 
112 1 3.63002 1.82336 9.05 
113 1 3.63002 0.0167037 10.8567 
114 1 5.43668 1.82336 10.8567 
115 1 5.43668 0.0167037 12.6633 
116 1 3.63002 1.82336 12.6633 