thermo_style    custom step atoms pe ke etotal press vol lx ly lz
thermo_modify   line one format float %.16g
fix             1 all box/relax iso 0.0 vmax 0.001
min_style       cg
min_modify      line quadratic
minimize        1.0e-16 1.0e-16 100000 1000000
WARNING: Resetting reneighboring criteria during minimization (../min.cpp:168)
Neighbor list info ...
  2 neighbor list requests
  update every 1 steps, delay 0 steps, check yes
  master list distance cutoff = 6
Memory usage per processor = 10.0868 Mbytes
Step Atoms PotEng KinEng TotEng Press Volume Lx Ly Lz 
       0      500 -1769.919663399547 0 -1769.919663399547 -7808.471570933233 5929.741000000002 18.1 18.1 18.1 
       9      500 -1769.999996300842 0 -1769.999996300842 9.515090858778699e-11 5896.955226713436 18.06657979081537 18.06657979081537 18.06657979081537 
Loop time of 0.0900481 on 1 procs for 9 steps with 500 atoms

Minimization stats:
  Stopping criterion = energy tolerance
  Energy initial, next-to-last, final = 
         -1769.9196634      -1769.9999963      -1769.9999963
  Force two-norm initial, final = 86.6987 1.11405e-12
  Force max component initial, final = 86.6987 1.05258e-12
  Final line search alpha, max atom move = 1 1.05258e-12
  Iterations, force evaluations = 9 17

Pair  time (%) = 0.0834794 (92.7054)
Neigh time (%) = 0 (0)
Comm  time (%) = 0.000254869 (0.283037)
Outpt time (%) = 0.00469899 (5.21831)
Other time (%) = 0.00161481 (1.79327)

Nlocal:    500 ave 500 max 500 min
Histogram: 1 0 0 0 0 0 0 0 0 0
Nghost:    1956 ave 1956 max 1956 min
Histogram: 1 0 0 0 0 0 0 0 0 0
Neighs:    19500 ave 19500 max 19500 min
Histogram: 1 0 0 0 0 0 0 0 0 0
FullNghs:  39000 ave 39000 max 39000 min
Histogram: 1 0 0 0 0 0 0 0 0 0

Total # of neighbors = 39000
Ave neighs/atom = 78
Neighbor list builds = 0
Dangerous builds = 0
