 
 500 atoms 
 
 1 atom types
 0.00000000000000000000 18.13884610997863333637 xlo xhi
 0.00000000000000000000 18.06657979081537135357 ylo yhi
 0.00000000000000000000 18.06657979081537135357 zlo zhi
 0.00000000000000110626 0.00000000000000110626 0.00000000000000110626 xy xz yz
 
 Atoms 
 
	1	1	0.00000000000000000000	0.00000000000000000000	0.00000000000000000000
	2	1	1.80665797908153713536	1.80665797908153713536	0.00000000000000000000
	3	1	1.80665797908153713536	0.00000000000000011063	1.80665797908153713536
	4	1	0.00000000000000022125	1.80665797908153713536	1.80665797908153713536
	5	1	0.00000000000000022125	0.00000000000000022125	3.61331595816307427071
	6	1	1.80665797908153735740	1.80665797908153735740	3.61331595816307427071
	7	1	1.80665797908153735740	0.00000000000000033188	5.41997393724461140607
	8	1	0.00000000000000044250	1.80665797908153735740	5.41997393724461140607
	9	1	0.00000000000000044250	0.00000000000000044250	7.22663191632614854143
	10	1	1.80665797908153757945	1.80665797908153757945	7.22663191632614854143
	11	1	1.80665797908153757945	0.00000000000000055313	9.03328989540768567679
	12	1	0.00000000000000066376	1.80665797908153757945	9.03328989540768567679
	13	1	0.00000000000000066376	0.00000000000000066376	10.83994787448922281214
	14	1	1.80665797908153780149	1.80665797908153780149	10.83994787448922281214
	15	1	1.80665797908153780149	0.00000000000000077438	12.64660585357075994750
	16	1	0.00000000000000088501	1.80665797908153780149	12.64660585357075994750
	17	1	0.00000000000000088501	0.00000000000000088501	14.45326383265229708286
	18	1	1.80665797908153802354	1.80665797908153802354	14.45326383265229708286
	19	1	1.80665797908153802354	0.00000000000000099563	16.25992181173383244186
	20	1	0.00000000000000110626	1.80665797908153802354	16.25992181173383244186
	21	1	0.00000000000000022125	3.61331595816307427071	0.00000000000000000000
	22	1	1.80665797908153735740	5.41997393724461140607	0.00000000000000000000
	23	1	1.80665797908153735740	3.61331595816307427071	1.80665797908153713536
	24	1	0.00000000000000044250	5.41997393724461140607	1.80665797908153713536
	25	1	0.00000000000000044250	3.61331595816307427071	3.61331595816307427071
	26	1	1.80665797908153757945	5.41997393724461140607	3.61331595816307427071
	27	1	1.80665797908153757945	3.61331595816307471480	5.41997393724461140607
	28	1	0.00000000000000066376	5.41997393724461140607	5.41997393724461140607
	29	1	0.00000000000000066376	3.61331595816307471480	7.22663191632614854143
	30	1	1.80665797908153780149	5.41997393724461140607	7.22663191632614854143
	31	1	1.80665797908153780149	3.61331595816307471480	9.03328989540768567679
	32	1	0.00000000000000088501	5.41997393724461229425	9.03328989540768567679
	33	1	0.00000000000000088501	3.61331595816307471480	10.83994787448922281214
	34	1	1.80665797908153802354	5.41997393724461229425	10.83994787448922281214
	35	1	1.80665797908153802354	3.61331595816307515889	12.64660585357075994750
	36	1	0.00000000000000110626	5.41997393724461229425	12.64660585357075994750
	37	1	0.00000000000000110626	3.61331595816307515889	14.45326383265229708286
	38	1	1.80665797908153824558	5.41997393724461229425	14.45326383265229708286
	39	1	1.80665797908153824558	3.61331595816307515889	16.25992181173383244186
	40	1	0.00000000000000132751	5.41997393724461229425	16.25992181173383244186
	41	1	0.00000000000000044250	7.22663191632614854143	0.00000000000000000000
	42	1	1.80665797908153757945	9.03328989540768567679	0.00000000000000000000
	43	1	1.80665797908153757945	7.22663191632614854143	1.80665797908153713536
	44	1	0.00000000000000066376	9.03328989540768567679	1.80665797908153713536
	45	1	0.00000000000000066376	7.22663191632614854143	3.61331595816307427071
	46	1	1.80665797908153780149	9.03328989540768567679	3.61331595816307427071
	47	1	1.80665797908153780149	7.22663191632614854143	5.41997393724461140607
	48	1	0.00000000000000088501	9.03328989540768567679	5.41997393724461140607
	49	1	0.00000000000000088501	7.22663191632614854143	7.22663191632614854143
	50	1	1.80665797908153802354	9.03328989540768567679	7.22663191632614854143
	51	1	1.80665797908153802354	7.22663191632614942961	9.03328989540768567679
	52	1	0.00000000000000110626	9.03328989540768567679	9.03328989540768567679
	53	1	0.00000000000000110626	7.22663191632614942961	10.83994787448922281214
	54	1	1.80665797908153824558	9.03328989540768567679	10.83994787448922281214
	55	1	1.80665797908153824558	7.22663191632614942961	12.64660585357075994750
	56	1	0.00000000000000132751	9.03328989540768567679	12.64660585357075994750
	57	1	0.00000000000000132751	7.22663191632614942961	14.45326383265229708286
	58	1	1.80665797908153846763	9.03328989540768567679	14.45326383265229708286
	59	1	1.80665797908153846763	7.22663191632614942961	16.25992181173383244186
	60	1	0.00000000000000154876	9.03328989540768745314	16.25992181173383244186
	61	1	0.00000000000000066376	10.83994787448922281214	0.00000000000000000000
	62	1	1.80665797908153780149	12.64660585357075994750	0.00000000000000000000
	63	1	1.80665797908153780149	10.83994787448922281214	1.80665797908153713536
	64	1	0.00000000000000088501	12.64660585357075994750	1.80665797908153713536
	65	1	0.00000000000000088501	10.83994787448922281214	3.61331595816307427071
	66	1	1.80665797908153802354	12.64660585357075994750	3.61331595816307427071
	67	1	1.80665797908153802354	10.83994787448922281214	5.41997393724461140607
	68	1	0.00000000000000110626	12.64660585357075994750	5.41997393724461140607
	69	1	0.00000000000000110626	10.83994787448922281214	7.22663191632614854143
	70	1	1.80665797908153824558	12.64660585357075994750	7.22663191632614854143
	71	1	1.80665797908153824558	10.83994787448922281214	9.03328989540768567679
	72	1	0.00000000000000132751	12.64660585357075994750	9.03328989540768567679
	73	1	0.00000000000000132751	10.83994787448922281214	10.83994787448922281214
	74	1	1.80665797908153846763	12.64660585357075994750	10.83994787448922281214
	75	1	1.80665797908153846763	10.83994787448922281214	12.64660585357075994750
	76	1	0.00000000000000154876	12.64660585357075994750	12.64660585357075994750
	77	1	0.00000000000000154876	10.83994787448922281214	14.45326383265229708286
	78	1	1.80665797908153868967	12.64660585357075994750	14.45326383265229708286
	79	1	1.80665797908153868967	10.83994787448922458850	16.25992181173383244186
	80	1	0.00000000000000177001	12.64660585357076172386	16.25992181173383244186
	81	1	0.00000000000000088501	14.45326383265229708286	0.00000000000000000000
	82	1	1.80665797908153802354	16.25992181173383244186	0.00000000000000000000
	83	1	1.80665797908153802354	14.45326383265229708286	1.80665797908153713536
	84	1	0.00000000000000110626	16.25992181173383244186	1.80665797908153713536
	85	1	0.00000000000000110626	14.45326383265229708286	3.61331595816307427071
	86	1	1.80665797908153824558	16.25992181173383244186	3.61331595816307427071
	87	1	1.80665797908153824558	14.45326383265229708286	5.41997393724461140607
	88	1	0.00000000000000132751	16.25992181173383244186	5.41997393724461140607
	89	1	0.00000000000000132751	14.45326383265229708286	7.22663191632614854143
	90	1	1.80665797908153846763	16.25992181173383244186	7.22663191632614854143
	91	1	1.80665797908153846763	14.45326383265229708286	9.03328989540768567679
	92	1	0.00000000000000154876	16.25992181173383244186	9.03328989540768567679
	93	1	0.00000000000000154876	14.45326383265229708286	10.83994787448922281214
	94	1	1.80665797908153868967	16.25992181173383244186	10.83994787448922281214
	95	1	1.80665797908153868967	14.45326383265229708286	12.64660585357075994750
	96	1	0.00000000000000177001	16.25992181173383244186	12.64660585357075994750
	97	1	0.00000000000000177001	14.45326383265229708286	14.45326383265229708286
	98	1	1.80665797908153891171	16.25992181173383244186	14.45326383265229708286
	99	1	1.80665797908153891171	14.45326383265229885922	16.25992181173383244186
	100	1	0.00000000000000199127	16.25992181173383244186	16.25992181173383244186
	101	1	3.61331595816307427071	0.00000000000000000000	0.00000000000000000000
	102	1	5.41997393724461140607	1.80665797908153713536	0.00000000000000000000
	103	1	5.41997393724461140607	0.00000000000000011063	1.80665797908153713536
	104	1	3.61331595816307427071	1.80665797908153713536	1.80665797908153713536
	105	1	3.61331595816307427071	0.00000000000000022125	3.61331595816307427071
	106	1	5.41997393724461140607	1.80665797908153735740	3.61331595816307427071
	107	1	5.41997393724461140607	0.00000000000000033188	5.41997393724461140607
	108	1	3.61331595816307471480	1.80665797908153735740	5.41997393724461140607
	109	1	3.61331595816307471480	0.00000000000000044250	7.22663191632614854143
	110	1	5.41997393724461140607	1.80665797908153757945	7.22663191632614854143
	111	1	5.41997393724461229425	0.00000000000000055313	9.03328989540768567679
	112	1	3.61331595816307471480	1.80665797908153757945	9.03328989540768567679
	113	1	3.61331595816307471480	0.00000000000000066376	10.83994787448922281214
	114	1	5.41997393724461229425	1.80665797908153780149	10.83994787448922281214
	115	1	5.41997393724461229425	0.00000000000000077438	12.64660585357075994750
	116	1	3.61331595816307515889	1.80665797908153780149	12.64660585357075994750
	117	1	3.61331595816307515889	0.00000000000000088501	14.45326383265229708286
	118	1	5.41997393724461229425	1.80665797908153802354	14.45326383265229708286
	119	1	5.41997393724461229425	0.00000000000000099563	16.25992181173383244186
	120	1	3.61331595816307515889	1.80665797908153802354	16.25992181173383244186
	121	1	3.61331595816307427071	3.61331595816307427071	0.00000000000000000000
	122	1	5.41997393724461140607	5.41997393724461140607	0.00000000000000000000
	123	1	5.41997393724461140607	3.61331595816307427071	1.80665797908153713536
	124	1	3.61331595816307471480	5.41997393724461140607	1.80665797908153713536
	125	1	3.61331595816307427071	3.61331595816307427071	3.61331595816307427071
	126	1	5.41997393724461140607	5.41997393724461140607	3.61331595816307427071
	127	1	5.41997393724461140607	3.61331595816307471480	5.41997393724461140607
	128	1	3.61331595816307515889	5.41997393724461140607	5.41997393724461140607
	129	1	3.61331595816307471480	3.61331595816307471480	7.22663191632614854143
	130	1	5.41997393724461140607	5.41997393724461140607	7.22663191632614854143
	131	1	5.41997393724461229425	3.61331595816307471480	9.03328989540768567679
	132	1	3.61331595816307515889	5.41997393724461229425	9.03328989540768567679
	133	1	3.61331595816307471480	3.61331595816307471480	10.83994787448922281214
	134	1	5.41997393724461229425	5.41997393724461229425	10.83994787448922281214
	135	1	5.41997393724461229425	3.61331595816307515889	12.64660585357075994750
	136	1	3.61331595816307560298	5.41997393724461229425	12.64660585357075994750
	137	1	3.61331595816307515889	3.61331595816307515889	14.45326383265229708286
	138	1	5.41997393724461229425	5.41997393724461229425	14.45326383265229708286
	139	1	5.41997393724461229425	3.61331595816307515889	16.25992181173383244186
	140	1	3.61331595816307560298	5.41997393724461229425	16.25992181173383244186
	141	1	3.61331595816307471480	7.22663191632614854143	0.00000000000000000000
	142	1	5.41997393724461229425	9.03328989540768567679	0.00000000000000000000
	143	1	5.41997393724461140607	7.22663191632614854143	1.80665797908153713536
	144	1	3.61331595816307471480	9.03328989540768567679	1.80665797908153713536
	145	1	3.61331595816307471480	7.22663191632614854143	3.61331595816307427071
	146	1	5.41997393724461229425	9.03328989540768567679	3.61331595816307427071
	147	1	5.41997393724461140607	7.22663191632614854143	5.41997393724461140607
	148	1	3.61331595816307515889	9.03328989540768567679	5.41997393724461140607
	149	1	3.61331595816307515889	7.22663191632614854143	7.22663191632614854143
	150	1	5.41997393724461229425	9.03328989540768567679	7.22663191632614854143
	151	1	5.41997393724461229425	7.22663191632614942961	9.03328989540768567679
	152	1	3.61331595816307515889	9.03328989540768567679	9.03328989540768567679
	153	1	3.61331595816307515889	7.22663191632614942961	10.83994787448922281214
	154	1	5.41997393724461318243	9.03328989540768567679	10.83994787448922281214
	155	1	5.41997393724461229425	7.22663191632614942961	12.64660585357075994750
	156	1	3.61331595816307560298	9.03328989540768567679	12.64660585357075994750
	157	1	3.61331595816307560298	7.22663191632614942961	14.45326383265229708286
	158	1	5.41997393724461318243	9.03328989540768567679	14.45326383265229708286
	159	1	5.41997393724461229425	7.22663191632614942961	16.25992181173383244186
	160	1	3.61331595816307560298	9.03328989540768745314	16.25992181173383244186
	161	1	3.61331595816307471480	10.83994787448922281214	0.00000000000000000000
	162	1	5.41997393724461229425	12.64660585357075994750	0.00000000000000000000
	163	1	5.41997393724461229425	10.83994787448922281214	1.80665797908153713536
	164	1	3.61331595816307515889	12.64660585357075994750	1.80665797908153713536
	165	1	3.61331595816307471480	10.83994787448922281214	3.61331595816307427071
	166	1	5.41997393724461229425	12.64660585357075994750	3.61331595816307427071
	167	1	5.41997393724461229425	10.83994787448922281214	5.41997393724461140607
	168	1	3.61331595816307560298	12.64660585357075994750	5.41997393724461140607
	169	1	3.61331595816307515889	10.83994787448922281214	7.22663191632614854143
	170	1	5.41997393724461229425	12.64660585357075994750	7.22663191632614854143
	171	1	5.41997393724461318243	10.83994787448922281214	9.03328989540768567679
	172	1	3.61331595816307560298	12.64660585357075994750	9.03328989540768567679
	173	1	3.61331595816307515889	10.83994787448922281214	10.83994787448922281214
	174	1	5.41997393724461318243	12.64660585357075994750	10.83994787448922281214
	175	1	5.41997393724461318243	10.83994787448922281214	12.64660585357075994750
	176	1	3.61331595816307604707	12.64660585357075994750	12.64660585357075994750
	177	1	3.61331595816307560298	10.83994787448922281214	14.45326383265229708286
	178	1	5.41997393724461318243	12.64660585357075994750	14.45326383265229708286
	179	1	5.41997393724461318243	10.83994787448922458850	16.25992181173383244186
	180	1	3.61331595816307604707	12.64660585357076172386	16.25992181173383244186
	181	1	3.61331595816307515889	14.45326383265229708286	0.00000000000000000000
	182	1	5.41997393724461229425	16.25992181173383244186	0.00000000000000000000
	183	1	5.41997393724461229425	14.45326383265229708286	1.80665797908153713536
	184	1	3.61331595816307515889	16.25992181173383244186	1.80665797908153713536
	185	1	3.61331595816307515889	14.45326383265229708286	3.61331595816307427071
	186	1	5.41997393724461229425	16.25992181173383244186	3.61331595816307427071
	187	1	5.41997393724461229425	14.45326383265229708286	5.41997393724461140607
	188	1	3.61331595816307560298	16.25992181173383244186	5.41997393724461140607
	189	1	3.61331595816307560298	14.45326383265229708286	7.22663191632614854143
	190	1	5.41997393724461229425	16.25992181173383244186	7.22663191632614854143
	191	1	5.41997393724461318243	14.45326383265229708286	9.03328989540768567679
	192	1	3.61331595816307560298	16.25992181173383244186	9.03328989540768567679
	193	1	3.61331595816307560298	14.45326383265229708286	10.83994787448922281214
	194	1	5.41997393724461318243	16.25992181173383244186	10.83994787448922281214
	195	1	5.41997393724461318243	14.45326383265229708286	12.64660585357075994750
	196	1	3.61331595816307604707	16.25992181173383244186	12.64660585357075994750
	197	1	3.61331595816307604707	14.45326383265229708286	14.45326383265229708286
	198	1	5.41997393724461318243	16.25992181173383244186	14.45326383265229708286
	199	1	5.41997393724461318243	14.45326383265229885922	16.25992181173383244186
	200	1	3.61331595816307604707	16.25992181173383244186	16.25992181173383244186
	201	1	7.22663191632614854143	0.00000000000000000000	0.00000000000000000000
	202	1	9.03328989540768567679	1.80665797908153713536	0.00000000000000000000
	203	1	9.03328989540768567679	0.00000000000000011063	1.80665797908153713536
	204	1	7.22663191632614854143	1.80665797908153713536	1.80665797908153713536
	205	1	7.22663191632614854143	0.00000000000000022125	3.61331595816307427071
	206	1	9.03328989540768567679	1.80665797908153735740	3.61331595816307427071
	207	1	9.03328989540768567679	0.00000000000000033188	5.41997393724461140607
	208	1	7.22663191632614854143	1.80665797908153735740	5.41997393724461140607
	209	1	7.22663191632614854143	0.00000000000000044250	7.22663191632614854143
	210	1	9.03328989540768567679	1.80665797908153757945	7.22663191632614854143
	211	1	9.03328989540768567679	0.00000000000000055313	9.03328989540768567679
	212	1	7.22663191632614942961	1.80665797908153757945	9.03328989540768567679
	213	1	7.22663191632614942961	0.00000000000000066376	10.83994787448922281214
	214	1	9.03328989540768567679	1.80665797908153780149	10.83994787448922281214
	215	1	9.03328989540768567679	0.00000000000000077438	12.64660585357075994750
	216	1	7.22663191632614942961	1.80665797908153780149	12.64660585357075994750
	217	1	7.22663191632614942961	0.00000000000000088501	14.45326383265229708286
	218	1	9.03328989540768567679	1.80665797908153802354	14.45326383265229708286
	219	1	9.03328989540768745314	0.00000000000000099563	16.25992181173383244186
	220	1	7.22663191632614942961	1.80665797908153802354	16.25992181173383244186
	221	1	7.22663191632614854143	3.61331595816307427071	0.00000000000000000000
	222	1	9.03328989540768567679	5.41997393724461140607	0.00000000000000000000
	223	1	9.03328989540768567679	3.61331595816307427071	1.80665797908153713536
	224	1	7.22663191632614854143	5.41997393724461140607	1.80665797908153713536
	225	1	7.22663191632614854143	3.61331595816307427071	3.61331595816307427071
	226	1	9.03328989540768567679	5.41997393724461140607	3.61331595816307427071
	227	1	9.03328989540768567679	3.61331595816307471480	5.41997393724461140607
	228	1	7.22663191632614854143	5.41997393724461140607	5.41997393724461140607
	229	1	7.22663191632614854143	3.61331595816307471480	7.22663191632614854143
	230	1	9.03328989540768567679	5.41997393724461140607	7.22663191632614854143
	231	1	9.03328989540768567679	3.61331595816307471480	9.03328989540768567679
	232	1	7.22663191632614942961	5.41997393724461229425	9.03328989540768567679
	233	1	7.22663191632614942961	3.61331595816307471480	10.83994787448922281214
	234	1	9.03328989540768567679	5.41997393724461229425	10.83994787448922281214
	235	1	9.03328989540768567679	3.61331595816307515889	12.64660585357075994750
	236	1	7.22663191632614942961	5.41997393724461229425	12.64660585357075994750
	237	1	7.22663191632614942961	3.61331595816307515889	14.45326383265229708286
	238	1	9.03328989540768567679	5.41997393724461229425	14.45326383265229708286
	239	1	9.03328989540768745314	3.61331595816307515889	16.25992181173383244186
	240	1	7.22663191632614942961	5.41997393724461229425	16.25992181173383244186
	241	1	7.22663191632614854143	7.22663191632614854143	0.00000000000000000000
	242	1	9.03328989540768567679	9.03328989540768567679	0.00000000000000000000
	243	1	9.03328989540768567679	7.22663191632614854143	1.80665797908153713536
	244	1	7.22663191632614942961	9.03328989540768567679	1.80665797908153713536
	245	1	7.22663191632614854143	7.22663191632614854143	3.61331595816307427071
	246	1	9.03328989540768567679	9.03328989540768567679	3.61331595816307427071
	247	1	9.03328989540768567679	7.22663191632614854143	5.41997393724461140607
	248	1	7.22663191632614942961	9.03328989540768567679	5.41997393724461140607
	249	1	7.22663191632614854143	7.22663191632614854143	7.22663191632614854143
	250	1	9.03328989540768567679	9.03328989540768567679	7.22663191632614854143
	251	1	9.03328989540768567679	7.22663191632614942961	9.03328989540768567679
	252	1	7.22663191632615031779	9.03328989540768567679	9.03328989540768567679
	253	1	7.22663191632614942961	7.22663191632614942961	10.83994787448922281214
	254	1	9.03328989540768567679	9.03328989540768567679	10.83994787448922281214
	255	1	9.03328989540768567679	7.22663191632614942961	12.64660585357075994750
	256	1	7.22663191632615031779	9.03328989540768567679	12.64660585357075994750
	257	1	7.22663191632614942961	7.22663191632614942961	14.45326383265229708286
	258	1	9.03328989540768567679	9.03328989540768567679	14.45326383265229708286
	259	1	9.03328989540768745314	7.22663191632614942961	16.25992181173383244186
	260	1	7.22663191632615031779	9.03328989540768745314	16.25992181173383244186
	261	1	7.22663191632614942961	10.83994787448922281214	0.00000000000000000000
	262	1	9.03328989540768567679	12.64660585357075994750	0.00000000000000000000
	263	1	9.03328989540768567679	10.83994787448922281214	1.80665797908153713536
	264	1	7.22663191632614942961	12.64660585357075994750	1.80665797908153713536
	265	1	7.22663191632614942961	10.83994787448922281214	3.61331595816307427071
	266	1	9.03328989540768567679	12.64660585357075994750	3.61331595816307427071
	267	1	9.03328989540768567679	10.83994787448922281214	5.41997393724461140607
	268	1	7.22663191632614942961	12.64660585357075994750	5.41997393724461140607
	269	1	7.22663191632614942961	10.83994787448922281214	7.22663191632614854143
	270	1	9.03328989540768567679	12.64660585357075994750	7.22663191632614854143
	271	1	9.03328989540768567679	10.83994787448922281214	9.03328989540768567679
	272	1	7.22663191632615031779	12.64660585357075994750	9.03328989540768567679
	273	1	7.22663191632615031779	10.83994787448922281214	10.83994787448922281214
	274	1	9.03328989540768567679	12.64660585357075994750	10.83994787448922281214
	275	1	9.03328989540768567679	10.83994787448922281214	12.64660585357075994750
	276	1	7.22663191632615031779	12.64660585357075994750	12.64660585357075994750
	277	1	7.22663191632615031779	10.83994787448922281214	14.45326383265229708286
	278	1	9.03328989540768567679	12.64660585357075994750	14.45326383265229708286
	279	1	9.03328989540768745314	10.83994787448922458850	16.25992181173383244186
	280	1	7.22663191632615031779	12.64660585357076172386	16.25992181173383244186
	281	1	7.22663191632614942961	14.45326383265229708286	0.00000000000000000000
	282	1	9.03328989540768745314	16.25992181173383244186	0.00000000000000000000
	283	1	9.03328989540768567679	14.45326383265229708286	1.80665797908153713536
	284	1	7.22663191632614942961	16.25992181173383244186	1.80665797908153713536
	285	1	7.22663191632614942961	14.45326383265229708286	3.61331595816307427071
	286	1	9.03328989540768745314	16.25992181173383244186	3.61331595816307427071
	287	1	9.03328989540768567679	14.45326383265229708286	5.41997393724461140607
	288	1	7.22663191632614942961	16.25992181173383244186	5.41997393724461140607
	289	1	7.22663191632614942961	14.45326383265229708286	7.22663191632614854143
	290	1	9.03328989540768745314	16.25992181173383244186	7.22663191632614854143
	291	1	9.03328989540768567679	14.45326383265229708286	9.03328989540768567679
	292	1	7.22663191632615031779	16.25992181173383244186	9.03328989540768567679
	293	1	7.22663191632615031779	14.45326383265229708286	10.83994787448922281214
	294	1	9.03328989540768745314	16.25992181173383244186	10.83994787448922281214
	295	1	9.03328989540768567679	14.45326383265229708286	12.64660585357075994750
	296	1	7.22663191632615031779	16.25992181173383244186	12.64660585357075994750
	297	1	7.22663191632615031779	14.45326383265229708286	14.45326383265229708286
	298	1	9.03328989540768745314	16.25992181173383244186	14.45326383265229708286
	299	1	9.03328989540768745314	14.45326383265229885922	16.25992181173383244186
	300	1	7.22663191632615031779	16.25992181173383244186	16.25992181173383244186
	301	1	10.83994787448922281214	0.00000000000000000000	0.00000000000000000000
	302	1	12.64660585357075994750	1.80665797908153713536	0.00000000000000000000
	303	1	12.64660585357075994750	0.00000000000000011063	1.80665797908153713536
	304	1	10.83994787448922281214	1.80665797908153713536	1.80665797908153713536
	305	1	10.83994787448922281214	0.00000000000000022125	3.61331595816307427071
	306	1	12.64660585357075994750	1.80665797908153735740	3.61331595816307427071
	307	1	12.64660585357075994750	0.00000000000000033188	5.41997393724461140607
	308	1	10.83994787448922281214	1.80665797908153735740	5.41997393724461140607
	309	1	10.83994787448922281214	0.00000000000000044250	7.22663191632614854143
	310	1	12.64660585357075994750	1.80665797908153757945	7.22663191632614854143
	311	1	12.64660585357075994750	0.00000000000000055313	9.03328989540768567679
	312	1	10.83994787448922281214	1.80665797908153757945	9.03328989540768567679
	313	1	10.83994787448922281214	0.00000000000000066376	10.83994787448922281214
	314	1	12.64660585357075994750	1.80665797908153780149	10.83994787448922281214
	315	1	12.64660585357075994750	0.00000000000000077438	12.64660585357075994750
	316	1	10.83994787448922281214	1.80665797908153780149	12.64660585357075994750
	317	1	10.83994787448922281214	0.00000000000000088501	14.45326383265229708286
	318	1	12.64660585357075994750	1.80665797908153802354	14.45326383265229708286
	319	1	12.64660585357076172386	0.00000000000000099563	16.25992181173383244186
	320	1	10.83994787448922458850	1.80665797908153802354	16.25992181173383244186
	321	1	10.83994787448922281214	3.61331595816307427071	0.00000000000000000000
	322	1	12.64660585357075994750	5.41997393724461140607	0.00000000000000000000
	323	1	12.64660585357075994750	3.61331595816307427071	1.80665797908153713536
	324	1	10.83994787448922281214	5.41997393724461140607	1.80665797908153713536
	325	1	10.83994787448922281214	3.61331595816307427071	3.61331595816307427071
	326	1	12.64660585357075994750	5.41997393724461140607	3.61331595816307427071
	327	1	12.64660585357075994750	3.61331595816307471480	5.41997393724461140607
	328	1	10.83994787448922281214	5.41997393724461140607	5.41997393724461140607
	329	1	10.83994787448922281214	3.61331595816307471480	7.22663191632614854143
	330	1	12.64660585357075994750	5.41997393724461140607	7.22663191632614854143
	331	1	12.64660585357075994750	3.61331595816307471480	9.03328989540768567679
	332	1	10.83994787448922281214	5.41997393724461229425	9.03328989540768567679
	333	1	10.83994787448922281214	3.61331595816307471480	10.83994787448922281214
	334	1	12.64660585357075994750	5.41997393724461229425	10.83994787448922281214
	335	1	12.64660585357075994750	3.61331595816307515889	12.64660585357075994750
	336	1	10.83994787448922281214	5.41997393724461229425	12.64660585357075994750
	337	1	10.83994787448922281214	3.61331595816307515889	14.45326383265229708286
	338	1	12.64660585357075994750	5.41997393724461229425	14.45326383265229708286
	339	1	12.64660585357076172386	3.61331595816307515889	16.25992181173383244186
	340	1	10.83994787448922458850	5.41997393724461229425	16.25992181173383244186
	341	1	10.83994787448922281214	7.22663191632614854143	0.00000000000000000000
	342	1	12.64660585357075994750	9.03328989540768567679	0.00000000000000000000
	343	1	12.64660585357075994750	7.22663191632614854143	1.80665797908153713536
	344	1	10.83994787448922281214	9.03328989540768567679	1.80665797908153713536
	345	1	10.83994787448922281214	7.22663191632614854143	3.61331595816307427071
	346	1	12.64660585357075994750	9.03328989540768567679	3.61331595816307427071
	347	1	12.64660585357075994750	7.22663191632614854143	5.41997393724461140607
	348	1	10.83994787448922281214	9.03328989540768567679	5.41997393724461140607
	349	1	10.83994787448922281214	7.22663191632614854143	7.22663191632614854143
	350	1	12.64660585357075994750	9.03328989540768567679	7.22663191632614854143
	351	1	12.64660585357075994750	7.22663191632614942961	9.03328989540768567679
	352	1	10.83994787448922281214	9.03328989540768567679	9.03328989540768567679
	353	1	10.83994787448922281214	7.22663191632614942961	10.83994787448922281214
	354	1	12.64660585357075994750	9.03328989540768567679	10.83994787448922281214
	355	1	12.64660585357075994750	7.22663191632614942961	12.64660585357075994750
	356	1	10.83994787448922281214	9.03328989540768567679	12.64660585357075994750
	357	1	10.83994787448922281214	7.22663191632614942961	14.45326383265229708286
	358	1	12.64660585357075994750	9.03328989540768567679	14.45326383265229708286
	359	1	12.64660585357076172386	7.22663191632614942961	16.25992181173383244186
	360	1	10.83994787448922458850	9.03328989540768745314	16.25992181173383244186
	361	1	10.83994787448922281214	10.83994787448922281214	0.00000000000000000000
	362	1	12.64660585357075994750	12.64660585357075994750	0.00000000000000000000
	363	1	12.64660585357075994750	10.83994787448922281214	1.80665797908153713536
	364	1	10.83994787448922281214	12.64660585357075994750	1.80665797908153713536
	365	1	10.83994787448922281214	10.83994787448922281214	3.61331595816307427071
	366	1	12.64660585357075994750	12.64660585357075994750	3.61331595816307427071
	367	1	12.64660585357075994750	10.83994787448922281214	5.41997393724461140607
	368	1	10.83994787448922281214	12.64660585357075994750	5.41997393724461140607
	369	1	10.83994787448922281214	10.83994787448922281214	7.22663191632614854143
	370	1	12.64660585357075994750	12.64660585357075994750	7.22663191632614854143
	371	1	12.64660585357075994750	10.83994787448922281214	9.03328989540768567679
	372	1	10.83994787448922281214	12.64660585357075994750	9.03328989540768567679
	373	1	10.83994787448922281214	10.83994787448922281214	10.83994787448922281214
	374	1	12.64660585357075994750	12.64660585357075994750	10.83994787448922281214
	375	1	12.64660585357075994750	10.83994787448922281214	12.64660585357075994750
	376	1	10.83994787448922281214	12.64660585357075994750	12.64660585357075994750
	377	1	10.83994787448922281214	10.83994787448922281214	14.45326383265229708286
	378	1	12.64660585357075994750	12.64660585357075994750	14.45326383265229708286
	379	1	12.64660585357076172386	10.83994787448922458850	16.25992181173383244186
	380	1	10.83994787448922458850	12.64660585357076172386	16.25992181173383244186
	381	1	10.83994787448922281214	14.45326383265229708286	0.00000000000000000000
	382	1	12.64660585357076172386	16.25992181173383244186	0.00000000000000000000
	383	1	12.64660585357075994750	14.45326383265229708286	1.80665797908153713536
	384	1	10.83994787448922458850	16.25992181173383244186	1.80665797908153713536
	385	1	10.83994787448922281214	14.45326383265229708286	3.61331595816307427071
	386	1	12.64660585357076172386	16.25992181173383244186	3.61331595816307427071
	387	1	12.64660585357075994750	14.45326383265229708286	5.41997393724461140607