ITEM: TIMESTEP
0
ITEM: NUMBER OF ATOMS
500
ITEM: BOX BOUNDS xy xz yz pp pp pp
0 18.1388 1.10626e-15
0 18.0666 1.10626e-15
0 18.0666 1.10626e-15
ITEM: ATOMS id type x y z 
1 1 0 0 0 
2 1 1.80666 1.80666 0 
3 1 1.80666 1.1063e-16 1.80666 
4 1 2.21252e-16 1.80666 1.80666 
5 1 2.21252e-16 2.21252e-16 3.61332 
6 1 1.80666 1.80666 3.61332 
7 1 1.80666 3.3188e-16 5.41997 
8 1 4.42504e-16 1.80666 5.41997 
9 1 4.42504e-16 4.42504e-16 7.22663 
10 1 1.80666 1.80666 7.22663 
11 1 1.80666 5.5313e-16 9.03329 
12 1 6.6376e-16 1.80666 9.03329 
13 1 6.6376e-16 6.6376e-16 10.8399 
14 1 1.80666 1.80666 10.8399 
15 1 1.80666 7.74382e-16 12.6466 
16 1 8.8501e-16 1.80666 12.6466 
17 1 8.8501e-16 8.8501e-16 14.4533 
18 1 1.80666 1.80666 14.4533 
19 1 1.80666 9.95634e-16 16.2599 
20 1 1.10626e-15 1.80666 16.2599 
21 1 2.21252e-16 3.61332 0 
22 1 1.80666 5.41997 0 
23 1 1.80666 3.61332 1.80666 
24 1 4.42504e-16 5.41997 1.80666 
25 1 4.42504e-16 3.61332 3.61332 
26 1 1.80666 5.41997 3.61332 
27 1 1.80666 3.61332 5.41997 
28 1 6.6376e-16 5.41997 5.41997 
29 1 6.6376e-16 3.61332 7.22663 
30 1 1.80666 5.41997 7.22663 
31 1 1.80666 3.61332 9.03329 
32 1 8.8501e-16 5.41997 9.03329 
33 1 8.8501e-16 3.61332 10.8399 
34 1 1.80666 5.41997 10.8399 
35 1 1.80666 3.61332 12.6466 
36 1 1.10626e-15 5.41997 12.6466 
37 1 1.10626e-15 3.61332 14.4533 
38 1 1.80666 5.41997 14.4533 
39 1 1.80666 3.61332 16.2599 
40 1 1.32751e-15 5.41997 16.2599 
41 1 4.42504e-16 7.22663 0 
42 1 1.80666 9.03329 0 
43 1 1.80666 7.22663 1.80666 
44 1 6.6376e-16 9.03329 1.80666 
45 1 6.6376e-16 7.22663 3.61332 
46 1 1.80666 9.03329 3.61332 
47 1 1.80666 7.22663 5.41997 
48 1 8.8501e-16 9.03329 5.41997 
49 1 8.8501e-16 7.22663 7.22663 
50 1 1.80666 9.03329 7.22663 
51 1 1.80666 7.22663 9.03329 
52 1 1.10626e-15 9.03329 9.03329 
53 1 1.10626e-15 7.22663 10.8399 
54 1 1.80666 9.03329 10.8399 
55 1 1.80666 7.22663 12.6466 
56 1 1.32751e-15 9.03329 12.6466 
57 1 1.32751e-15 7.22663 14.4533 
58 1 1.80666 9.03329 14.4533 
59 1 1.80666 7.22663 16.2599 
60 1 1.54876e-15 9.03329 16.2599 
61 1 6.6376e-16 10.8399 0 
62 1 1.80666 12.6466 0 
63 1 1.80666 10.8399 1.80666 
64 1 8.8501e-16 12.6466 1.80666 
65 1 8.8501e-16 10.8399 3.61332 
66 1 1.80666 12.6466 3.61332 
67 1 1.80666 10.8399 5.41997 
68 1 1.10626e-15 12.6466 5.41997 
69 1 1.10626e-15 10.8399 7.22663 
70 1 1.80666 12.6466 7.22663 
71 1 1.80666 10.8399 9.03329 
72 1 1.32751e-15 12.6466 9.03329 
73 1 1.32751e-15 10.8399 10.8399 
74 1 1.80666 12.6466 10.8399 
75 1 1.80666 10.8399 12.6466 
76 1 1.54876e-15 12.6466 12.6466 
77 1 1.54876e-15 10.8399 14.4533 
78 1 1.80666 12.6466 14.4533 
79 1 1.80666 10.8399 16.2599 
80 1 1.77002e-15 12.6466 16.2599 
81 1 8.8501e-16 14.4533 0 
82 1 1.80666 16.2599 0 
83 1 1.80666 14.4533 1.80666 
84 1 1.10626e-15 16.2599 1.80666 
85 1 1.10626e-15 14.4533 3.61332 
86 1 1.80666 16.2599 3.61332 
87 1 1.80666 14.4533 5.41997 
88 1 1.32751e-15 16.2599 5.41997 
89 1 1.32751e-15 14.4533 7.22663 
90 1 1.80666 16.2599 7.22663 
91 1 1.80666 14.4533 9.03329 
92 1 1.54876e-15 16.2599 9.03329 
93 1 1.54876e-15 14.4533 10.8399 
94 1 1.80666 16.2599 10.8399 
95 1 1.80666 14.4533 12.6466 
96 1 1.77002e-15 16.2599 12.6466 
97 1 1.77002e-15 14.4533 14.4533 
98 1 1.80666 16.2599 14.4533 
99 1 1.80666 14.4533 16.2599 
100 1 1.99127e-15 16.2599 16.2599 
101 1 3.61332 0 0 
102 1 5.41997 1.80666 0 
103 1 5.41997 1.1063e-16 1.80666 
104 1 3.61332 1.80666 1.80666 
105 1 3.61332 2.21252e-16 3.61332 
106 1 5.41997 1.80666 3.61332 
107 1 5.41997 3.3188e-16 5.41997 
108 1 3.61332 1.80666 5.41997 
109 1 3.61332 4.42504e-16 7.22663 
110 1 5.41997 1.80666 7.22663 
111 1 5.41997 5.5313e-16 9.03329 
112 1 3.61332 1.80666 9.03329 
113 1 3.61332 6.6376e-16 10.8399 
114 1 5.41997 1.80666 10.8399 
115 1 5.41997 7.74382e-16 12.6466 
116 1 3.61332 1.80666 12.6466 
117 1 3.61332 8.8501e-16 14.4533 
118 1 5.41997 1.80666 14.4533 
119 1 5.41997 9.95634e-16 16.2599 
120 1 3.61332 1.80666 16.2599 
121 1 3.61332 3.61332 0 
122 1 5.41997 5.41997 0 
123 1 5.41997 3.61332 1.80666 
124 1 3.61332 5.41997 1.80666 
125 1 3.61332 3.61332 3.61332 
126 1 5.41997 5.41997 3.61332 
127 1 5.41997 3.61332 5.41997 
128 1 3.61332 5.41997 5.41997 
129 1 3.61332 3.61332 7.22663 
130 1 5.41997 5.41997 7.22663 
131 1 5.41997 3.61332 9.03329 
132 1 3.61332 5.41997 9.03329 
133 1 3.61332 3.61332 10.8399 
134 1 5.41997 5.41997 10.8399 
135 1 5.41997 3.61332 12.6466 
136 1 3.61332 5.41997 12.6466 
137 1 3.61332 3.61332 14.4533 
138 1 5.41997 5.41997 14.4533 
139 1 5.41997 3.61332 16.2599 
140 1 3.61332 5.41997 16.2599 
141 1 3.61332 7.22663 0 
142 1 5.41997 9.03329 0 
143 1 5.41997 7.22663 1.80666 
144 1 3.61332 9.03329 1.80666 
145 1 3.61332 7.22663 3.61332 
146 1 5.41997 9.03329 3.61332 
147 1 5.41997 7.22663 5.41997 
148 1 3.61332 9.03329 5.41997 
149 1 3.61332 7.22663 7.22663 
150 1 5.41997 9.03329 7.22663 
151 1 5.41997 7.22663 9.03329 
152 1 3.61332 9.03329 9.03329 
153 1 3.61332 7.22663 10.8399 
154 1 5.41997 9.03329 10.8399 
155 1 5.41997 7.22663 12.6466 
156 1 3.61332 9.03329 12.6466 
157 1 3.61332 7.22663 14.4533 
158 1 5.41997 9.03329 14.4533 
159 1 5.41997 7.22663 16.2599 
160 1 3.61332 9.03329 16.2599 
161 1 3.61332 10.8399 0 
162 1 5.41997 12.6466 0 
163 1 5.41997 10.8399 1.80666 
164 1 3.61332 12.6466 1.80666 
165 1 3.61332 10.8399 3.61332 
166 1 5.41997 12.6466 3.61332 
167 1 5.41997 10.8399 5.41997 
168 1 3.61332 12.6466 5.41997 
169 1 3.61332 10.8399 7.22663 
170 1 5.41997 12.6466 7.22663 
171 1 5.41997 10.8399 9.03329 
172 1 3.61332 12.6466 9.03329 
173 1 3.61332 10.8399 10.8399 
174 1 5.41997 12.6466 10.8399 
175 1 5.41997 10.8399 12.6466 
176 1 3.61332 12.6466 12.6466 
177 1 3.61332 10.8399 14.4533 
178 1 5.41997 12.6466 14.4533 
179 1 5.41997 10.8399 16.2599 
180 1 3.61332 12.6466 16.2599 
181 1 3.61332 14.4533 0 
182 1 5.41997 16.2599 0 
183 1 5.41997 14.4533 1.80666 
184 1 3.61332 16.2599 1.80666 
185 1 3.61332 14.4533 3.61332 
186 1 5.41997 16.2599 3.61332 
187 1 5.41997 14.4533 5.41997 
188 1 3.61332 16.2599 5.41997 
189 1 3.61332 14.4533 7.22663 
190 1 5.41997 16.2599 7.22663 
191 1 5.41997 14.4533 9.03329 
192 1 3.61332 16.2599 9.03329 
193 1 3.61332 14.4533 10.8399 
194 1 5.41997 16.2599 10.8399 
195 1 5.41997 14.4533 12.6466 
196 1 3.61332 16.2599 12.6466 
197 1 3.61332 14.4533 14.4533 
198 1 5.41997 16.2599 14.4533 
199 1 5.41997 14.4533 16.2599 
200 1 3.61332 16.2599 16.2599 
201 1 7.22663 0 0 
202 1 9.03329 1.80666 0 
203 1 9.03329 1.1063e-16 1.80666 
204 1 7.22663 1.80666 1.80666 
205 1 7.22663 2.21252e-16 3.61332 
206 1 9.03329 1.80666 3.61332 
207 1 9.03329 3.3188e-16 5.41997 
208 1 7.22663 1.80666 5.41997 
209 1 7.22663 4.42504e-16 7.22663 
210 1 9.03329 1.80666 7.22663 
211 1 9.03329 5.5313e-16 9.03329 
212 1 7.22663 1.80666 9.03329 
213 1 7.22663 6.6376e-16 10.8399 
214 1 9.03329 1.80666 10.8399 
215 1 9.03329 7.74382e-16 12.6466 
216 1 7.22663 1.80666 12.6466 
217 1 7.22663 8.8501e-16 14.4533 
218 1 9.03329 1.80666 14.4533 
219 1 9.03329 9.95634e-16 16.2599 
220 1 7.22663 1.80666 16.2599 
221 1 7.22663 3.61332 0 
222 1 9.03329 5.41997 0 
223 1 9.03329 3.61332 1.80666 
224 1 7.22663 5.41997 1.80666 
225 1 7.22663 3.61332 3.61332 
226 1 9.03329 5.41997 3.61332 
227 1 9.03329 3.61332 5.41997 
228 1 7.22663 5.41997 5.41997 
229 1 7.22663 3.61332 7.22663 
230 1 9.03329 5.41997 7.22663 
231 1 9.03329 3.61332 9.03329 
232 1 7.22663 5.41997 9.03329 
233 1 7.22663 3.61332 10.8399 
234 1 9.03329 5.41997 10.8399 
235 1 9.03329 3.61332 12.6466 
236 1 7.22663 5.41997 12.6466 
237 1 7.22663 3.61332 14.4533 
238 1 9.03329 5.41997 14.4533 
239 1 9.03329 3.61332 16.2599 
240 1 7.22663 5.41997 16.2599 
241 1 7.22663 7.22663 0 
242 1 9.03329 9.03329 0 
243 1 9.03329 7.22663 1.80666 
244 1 7.22663 9.03329 1.80666 
245 1 7.22663 7.22663 3.61332 
246 1 9.03329 9.03329 3.61332 
247 1 9.03329 7.22663 5.41997 
248 1 7.22663 9.03329 5.41997 
249 1 7.22663 7.22663 7.22663 
250 1 9.03329 9.03329 7.22663 
251 1 9.03329 7.22663 9.03329 
252 1 7.22663 9.03329 9.03329 
253 1 7.22663 7.22663 10.8399 
254 1 9.03329 9.03329 10.8399 
255 1 9.03329 7.22663 12.6466 
256 1 7.22663 9.03329 12.6466 
257 1 7.22663 7.22663 14.4533 
258 1 9.03329 9.03329 14.4533 
259 1 9.03329 7.22663 16.2599 
260 1 7.22663 9.03329 16.2599 
261 1 7.22663 10.8399 0 
262 1 9.03329 12.6466 0 
263 1 9.03329 10.8399 1.80666 
264 1 7.22663 12.6466 1.80666 
265 1 7.22663 10.8399 3.61332 
266 1 9.03329 12.6466 3.61332 
267 1 9.03329 10.8399 5.41997 
268 1 7.22663 12.6466 5.41997 
269 1 7.22663 10.8399 7.22663 
270 1 9.03329 12.6466 7.22663 
271 1 9.03329 10.8399 9.03329 
272 1 7.22663 12.6466 9.03329 
273 1 7.22663 10.8399 10.8399 
274 1 9.03329 12.6466 10.8399 
275 1 9.03329 10.8399 12.6466 
276 1 7.22663 12.6466 12.6466 
277 1 7.22663 10.8399 14.4533 
278 1 9.03329 12.6466 14.4533 
279 1 9.03329 10.8399 16.2599 
280 1 7.22663 12.6466 16.2599 
281 1 7.22663 14.4533 0 
282 1 9.03329 16.2599 0 
283 1 9.03329 14.4533 1.80666 
284 1 7.22663 16.2599 1.80666 
285 1 7.22663 14.4533 3.61332 
286 1 9.03329 16.2599 3.61332 
287 1 9.03329 14.4533 5.41997 
288 1 7.22663 16.2599 5.41997 
289 1 7.22663 14.4533 7.22663 
290 1 9.03329 16.2599 7.22663 
291 1 9.03329 14.4533 9.03329 
292 1 7.22663 16.2599 9.03329 
293 1 7.22663 14.4533 10.8399 
294 1 9.03329 16.2599 10.8399 
295 1 9.03329 14.4533 12.6466 
296 1 7.22663 16.2599 12.6466 
297 1 7.22663 14.4533 14.4533 
298 1 9.03329 16.2599 14.4533 
299 1 9.03329 14.4533 16.2599 
300 1 7.22663 16.2599 16.2599 
301 1 10.8399 0 0 
302 1 12.6466 1.80666 0 
303 1 12.6466 1.1063e-16 1.80666 
304 1 10.8399 1.80666 1.80666 
305 1 10.8399 2.21252e-16 3.61332 
306 1 12.6466 1.80666 3.61332 
307 1 12.6466 3.3188e-16 5.41997 
308 1 10.8399 1.80666 5.41997 
309 1 10.8399 4.42504e-16 7.22663 
310 1 12.6466 1.80666 7.22663 
311 1 12.6466 5.5313e-16 9.03329 
312 1 10.8399 1.80666 9.03329 
313 1 10.8399 6.6376e-16 10.8399 
314 1 12.6466 1.80666 10.8399 
315 1 12.6466 7.74382e-16 12.6466 
316 1 10.8399 1.80666 12.6466 
317 1 10.8399 8.8501e-16 14.4533 
318 1 12.6466 1.80666 14.4533 
319 1 12.6466 9.95634e-16 16.2599 
320 1 10.8399 1.80666 16.2599 
321 1 10.8399 3.61332 0 
322 1 12.6466 5.41997 0 
323 1 12.6466 3.61332 1.80666 
324 1 10.8399 5.41997 1.80666 
325 1 10.8399 3.61332 3.61332 
326 1 12.6466 5.41997 3.61332 
327 1 12.6466 3.61332 5.41997 
328 1 10.8399 5.41997 5.41997 
329 1 10.8399 3.61332 7.22663 
330 1 12.6466 5.41997 7.22663 
331 1 12.6466 3.61332 9.03329 
332 1 10.8399 5.41997 9.03329 
333 1 10.8399 3.61332 10.8399 
334 1 12.6466 5.41997 10.8399 
335 1 12.6466 3.61332 12.6466 
336 1 10.8399 5.41997 12.6466 
337 1 10.8399 3.61332 14.4533 
338 1 12.6466 5.41997 14.4533 
339 1 12.6466 3.61332 16.2599 
340 1 10.8399 5.41997 16.2599 
341 1 10.8399 7.22663 0 
342 1 12.6466 9.03329 0 
343 1 12.6466 7.22663 1.80666 
344 1 10.8399 9.03329 1.80666 
345 1 10.8399 7.22663 3.61332 
346 1 12.6466 9.03329 3.61332 
347 1 12.6466 7.22663 5.41997 
348 1 10.8399 9.03329 5.41997 
349 1 10.8399 7.22663 7.22663 
350 1 12.6466 9.03329 7.22663 
351 1 12.6466 7.22663 9.03329 
352 1 10.8399 9.03329 9.03329 
353 1 10.8399 7.22663 10.8399 
354 1 12.6466 9.03329 10.8399 
355 1 12.6466 7.22663 12.6466 
356 1 10.8399 9.03329 12.6466 
357 1 10.8399 7.22663 14.4533 
358 1 12.6466 9.03329 14.4533 
359 1 12.6466 7.22663 16.2599 
360 1 10.8399 9.03329 16.2599 
361 1 10.8399 10.8399 0 
362 1 12.6466 12.6466 0 
363 1 12.6466 10.8399 1.80666 
364 1 10.8399 12.6466 1.80666 
365 1 10.8399 10.8399 3.61332 
366 1 12.6466 12.6466 3.61332 
367 1 12.6466 10.8399 5.41997 
368 1 10.8399 12.6466 5.41997 
369 1 10.8399 10.8399 7.22663 
370 1 12.6466 12.6466 7.22663 
371 1 12.6466 10.8399 9.03329 
372 1 10.8399 12.6466 9.03329 
373 1 10.8399 10.8399 10.8399 
374 1 12.6466 12.6466 10.8399 
375 1 12.6466 10.8399 12.6466 
376 1 10.8399 12.6466 12.6466 
377 1 10.8399 10.8399 14.4533 
378 1 12.6466 12.6466 14.4533 
379 1 12.6466 10.8399 16.2599 
380 1 10.8399 12.6466 16.2599 
381 1 10.8399 14.4533 0 
382 1 12.6466 16.2599 0 
383 1 12.6466 14.4533 1.80666 
384 1 10.8399 16.2599 1.80666 
385 1 10.8399 14.4533 3.61332 
386 1 12.6466 16.2599 3.61332 
387 1 12.6466 14.4533 5.41997 
388 1 10.8399 16.2599 5.41997 
389 1 10.8399 14.4533 7.22663 
390 1 12.6466 16.2599 7.22663 
391 1 12.6466 14.4533 9.03329 
392 1 10.8399 16.2599 9.03329 
393 1 10.8399 14.4533 10.8399 
394 1 12.6466 16.2599 10.8399 
395 1 12.6466 14.4533 12.6466 
396 1 10.8399 16.2599 12.6466 
397 1 10.8399 14.4533 14.4533 
398 1 12.6466 16.2599 14.4533 
399 1 12.6466 14.4533 16.2599 
400 1 10.8399 16.2599 16.2599 
401 1 14.4533 0 0 
402 1 16.2599 1.80666 0 
403 1 16.2599 1.1063e-16 1.80666 
404 1 14.4533 1.80666 1.80666 
405 1 14.4533 2.21252e-16 3.61332 
406 1 16.2599 1.80666 3.61332 
407 1 16.2599 3.3188e-16 5.41997 
408 1 14.4533 1.80666 5.41997 
409 1 14.4533 4.42504e-16 7.22663 
410 1 16.2599 1.80666 7.22663 
411 1 16.2599 5.5313e-16 9.03329 
412 1 14.4533 1.80666 9.03329 
413 1 14.4533 6.6376e-16 10.8399 
414 1 16.2599 1.80666 10.8399 
415 1 16.2599 7.74382e-16 12.6466 
416 1 14.4533 1.80666 12.6466 
417 1 14.4533 8.8501e-16 14.4533 
418 1 16.2599 1.80666 14.4533 
419 1 16.2599 9.95634e-16 16.2599 
420 1 14.4533 1.80666 16.2599 
421 1 14.4533 3.61332 0 
422 1 16.2599 5.41997 0 
423 1 16.2599 3.61332 1.80666 
424 1 14.4533 5.41997 1.80666 
425 1 14.4533 3.61332 3.61332 
426 1 16.2599 5.41997 3.61332 
427 1 16.2599 3.61332 5.41997 
428 1 14.4533 5.41997 5.41997 
429 1 14.4533 3.61332 7.22663 
430 1 16.2599 5.41997 7.22663 
431 1 16.2599 3.61332 9.03329 
432 1 14.4533 5.41997 9.03329 
433 1 14.4533 3.61332 10.8399 
434 1 16.2599 5.41997 10.8399 
435 1 16.2599 3.61332 12.6466 
436 1 14.4533 5.41997 12.6466 
437 1 14.4533 3.61332 14.4533 
438 1 16.2599 5.41997 14.4533 
439 1 16.2599 3.61332 16.2599 
440 1 14.4533 5.41997 16.2599 
441 1 14.4533 7.22663 0 
442 1 16.2599 9.03329 0 
443 1 16.2599 7.22663 1.80666 
444 1 14.4533 9.03329 1.80666 
445 1 14.4533 7.22663 3.61332 
446 1 16.2599 9.03329 3.61332 
447 1 16.2599 7.22663 5.41997 
448 1 14.4533 9.03329 5.41997 
449 1 14.4533 7.22663 7.22663 
450 1 16.2599 9.03329 7.22663 
451 1 16.2599 7.22663 9.03329 
452 1 14.4533 9.03329 9.03329 
453 1 14.4533 7.22663 10.8399 
454 1 16.2599 9.03329 10.8399 
455 1 16.2599 7.22663 12.6466 
456 1 14.4533 9.03329 12.6466 
457 1 14.4533 7.22663 14.4533 
458 1 16.2599 9.03329 14.4533 
459 1 16.2599 7.22663 16.2599 
460 1 14.4533 9.03329 16.2599 
461 1 14.4533 10.8399 0 
462 1 16.2599 12.6466 0 
463 1 16.2599 10.8399 1.80666 
464 1 14.4533 12.6466 1.80666 
465 1 14.4533 10.8399 3.61332 
466 1 16.2599 12.6466 3.61332 
467 1 16.2599 10.8399 5.41997 
468 1 14.4533 12.6466 5.41997 
469 1 14.4533 10.8399 7.22663 
470 1 16.2599 12.6466 7.22663 
471 1 16.2599 10.8399 9.03329 
472 1 14.4533 12.6466 9.03329 
473 1 14.4533 10.8399 10.8399 
474 1 16.2599 12.6466 10.8399 
475 1 16.2599 10.8399 12.6466 
476 1 14.4533 12.6466 12.6466 
477 1 14.4533 10.8399 14.4533 
478 1 16.2599 12.6466 14.4533 
479 1 16.2599 10.8399 16.2599 
480 1 14.4533 12.6466 16.2599 
481 1 14.4533 14.4533 0 
482 1 16.2599 16.2599 0 
483 1 16.2599 14.4533 1.80666 
484 1 14.4533 16.2599 1.80666 
485 1 14.4533 14.4533 3.61332 
486 1 16.2599 16.2599 3.61332 
487 1 16.2599 14.4533 5.41997 
488 1 14.4533 16.2599 5.41997 
489 1 14.4533 14.4533 7.22663 
490 1 16.2599 16.2599 7.22663 
491 1 16.2599 14.4533 9.03329 
492 1 14.4533 16.2599 9.03329 
493 1 14.4533 14.4533 10.8399 
494 1 16.2599 16.2599 10.8399 
495 1 16.2599 14.4533 12.6466 
496 1 14.4533 16.2599 12.6466 
497 1 14.4533 14.4533 14.4533 
498 1 16.2599 16.2599 14.4533 
499 1 16.2599 14.4533 16.2599 
500 1 14.4533 16.2599 16.2599 
ITEM: TIMESTEP
1
ITEM: NUMBER OF ATOMS
500
ITEM: BOX BOUNDS xy xz yz pp pp pp
0 18.1388 1.10626e-15
0 18.0666 1.10626e-15
0 18.0666 1.10626e-15
ITEM: ATOMS id type x y z 
1 1 -0.0230518 -6.5647e-16 -6.21356e-16 
2 1 1.80473 1.80666 -7.67058e-16 
3 1 1.80473 -6.72649e-16 1.80666 
4 1 -0.0230518 1.80666 1.80666 
5 1 -0.0230518 -4.00104e-16 3.61332 
6 1 1.80473 1.80666 3.61332 
7 1 1.80473 -3.90809e-16 5.41997 
8 1 -0.0230518 1.80666 5.41997 
9 1 -0.0230518 -1.52135e-16 7.22663 
10 1 1.80473 1.80666 7.22663 
11 1 1.80473 -2.36733e-16 9.03329 
12 1 -0.0230518 1.80666 9.03329 
13 1 -0.0230518 -5.454e-17 10.8399 
14 1 1.80473 1.80666 10.8399 
15 1 1.80473 -3.38009e-17 12.6466 
16 1 -0.0230518 1.80666 12.6466 
17 1 -0.0230518 2.63654e-16 14.4533 
18 1 1.80473 1.80666 14.4533 
19 1 1.80473 3.88304e-16 16.2599 
20 1 -0.0230518 1.80666 16.2599 
21 1 -0.0230518 3.61332 -5.41206e-16 
22 1 1.80473 5.41997 -7.57994e-16 
23 1 1.80473 3.61332 1.80666 
24 1 -0.0230518 5.41997 1.80666 
25 1 -0.0230518 3.61332 3.61332 
26 1 1.80473 5.41997 3.61332 
27 1 1.80473 3.61332 5.41997 
28 1 -0.0230518 5.41997 5.41997 
29 1 -0.0230518 3.61332 7.22663 
30 1 1.80473 5.41997 7.22663 
31 1 1.80473 3.61332 9.03329 
32 1 -0.0230518 5.41997 9.03329 
33 1 -0.0230518 3.61332 10.8399 
34 1 1.80473 5.41997 10.8399 
35 1 1.80473 3.61332 12.6466 
36 1 -0.0230518 5.41997 12.6466 
37 1 -0.0230518 3.61332 14.4533 
38 1 1.80473 5.41997 14.4533 
39 1 1.80473 3.61332 16.2599 
40 1 -0.0230518 5.41997 16.2599 
41 1 -0.0230518 7.22663 -9.74018e-16 
42 1 1.80473 9.03329 -1.30903e-15 
43 1 1.80473 7.22663 1.80666 
44 1 -0.0230518 9.03329 1.80666 
45 1 -0.0230518 7.22663 3.61332 
46 1 1.80473 9.03329 3.61332 
47 1 1.80473 7.22663 5.41997 
48 1 -0.0230518 9.03329 5.41997 
49 1 -0.0230518 7.22663 7.22663 
50 1 1.80473 9.03329 7.22663 
51 1 1.80473 7.22663 9.03329 
52 1 -0.0230518 9.03329 9.03329 
53 1 -0.0230518 7.22663 10.8399 
54 1 1.80473 9.03329 10.8399 
55 1 1.80473 7.22663 12.6466 
56 1 -0.0230518 9.03329 12.6466 
57 1 -0.0230518 7.22663 14.4533 
58 1 1.80473 9.03329 14.4533 
59 1 1.80473 7.22663 16.2599 
60 1 -0.0230518 9.03329 16.2599 
61 1 -0.0230518 10.8399 -5.83953e-16 
62 1 1.80473 12.6466 -6.04467e-16 
63 1 1.80473 10.8399 1.80666 
64 1 -0.0230518 12.6466 1.80666 
65 1 -0.0230518 10.8399 3.61332 
66 1 1.80473 12.6466 3.61332 
67 1 1.80473 10.8399 5.41997 
68 1 -0.0230518 12.6466 5.41997 
69 1 -0.0230518 10.8399 7.22663 
70 1 1.80473 12.6466 7.22663 
71 1 1.80473 10.8399 9.03329 
72 1 -0.0230518 12.6466 9.03329 
73 1 -0.0230518 10.8399 10.8399 
74 1 1.80473 12.6466 10.8399 
75 1 1.80473 10.8399 12.6466 
76 1 -0.0230518 12.6466 12.6466 
77 1 -0.0230518 10.8399 14.4533 
78 1 1.80473 12.6466 14.4533 
79 1 1.80473 10.8399 16.2599 
80 1 -0.0230518 12.6466 16.2599 
81 1 -0.0230518 14.4533 -6.5647e-17 
82 1 1.80473 16.2599 -4.53613e-16 
83 1 1.80473 14.4533 1.80666 
84 1 -0.0230518 16.2599 1.80666 
85 1 -0.0230518 14.4533 3.61332 
86 1 1.80473 16.2599 3.61332 
87 1 1.80473 14.4533 5.41997 
88 1 -0.0230518 16.2599 5.41997 
89 1 -0.0230518 14.4533 7.22663 
90 1 1.80473 16.2599 7.22663 
91 1 1.80473 14.4533 9.03329 
92 1 -0.0230518 16.2599 9.03329 
93 1 -0.0230518 14.4533 10.8399 
94 1 1.80473 16.2599 10.8399 
95 1 1.80473 14.4533 12.6466 
96 1 -0.0230518 16.2599 12.6466 
97 1 -0.0230518 14.4533 14.4533 
98 1 1.80473 16.2599 14.4533 
99 1 1.80473 14.4533 16.2599 
100 1 -0.0230518 16.2599 16.2599 
101 1 3.61332 -7.9397e-16 -6.92313e-16 
102 1 5.41997 1.80666 -7.39667e-16 
103 1 5.41997 -6.25592e-16 1.80666 
104 1 3.61332 1.80666 1.80666 
105 1 3.61332 -6.07797e-16 3.61332 
106 1 5.41997 1.80666 3.61332 
107 1 5.41997 -4.33224e-16 5.41997 
108 1 3.61332 1.80666 5.41997 
109 1 3.61332 -3.52556e-16 7.22663 
110 1 5.41997 1.80666 7.22663 
111 1 5.41997 -3.70231e-17 9.03329 
112 1 3.61332 1.80666 9.03329 
113 1 3.61332 -1.95153e-16 10.8399 
114 1 5.41997 1.80666 10.8399 
115 1 5.41997 1.58492e-16 12.6466 
116 1 3.61332 1.80666 12.6466 
117 1 3.61332 2.29988e-16 14.4533 
118 1 5.41997 1.80666 14.4533 
119 1 5.41997 5.29942e-16 16.2599 
120 1 3.61332 1.80666 16.2599 
121 1 3.61332 3.61332 -7.98479e-16 
122 1 5.41997 5.41997 -6.68251e-16 
123 1 5.41997 3.61332 1.80666 
124 1 3.61332 5.41997 1.80666 
125 1 3.61332 3.61332 3.61332 
126 1 5.41997 5.41997 3.61332 
127 1 5.41997 3.61332 5.41997 
128 1 3.61332 5.41997 5.41997 
129 1 3.61332 3.61332 7.22663 
130 1 5.41997 5.41997 7.22663 
131 1 5.41997 3.61332 9.03329 
132 1 3.61332 5.41997 9.03329 
133 1 3.61332 3.61332 10.8399 
134 1 5.41997 5.41997 10.8399 
135 1 5.41997 3.61332 12.6466 
136 1 3.61332 5.41997 12.6466 
137 1 3.61332 3.61332 14.4533 
138 1 5.41997 5.41997 14.4533 
139 1 5.41997 3.61332 16.2599 
140 1 3.61332 5.41997 16.2599 
141 1 3.61332 7.22663 -1.10875e-15 
142 1 5.41997 9.03329 -1.02329e-15 
143 1 5.41997 7.22663 1.80666 
144 1 3.61332 9.03329 1.80666 
145 1 3.61332 7.22663 3.61332 
146 1 5.41997 9.03329 3.61332 
147 1 5.41997 7.22663 5.41997 
148 1 3.61332 9.03329 5.41997 
149 1 3.61332 7.22663 7.22663 
150 1 5.41997 9.03329 7.22663 
151 1 5.41997 7.22663 9.03329 
152 1 3.61332 9.03329 9.03329 
153 1 3.61332 7.22663 10.8399 
154 1 5.41997 9.03329 10.8399 
155 1 5.41997 7.22663 12.6466 
156 1 3.61332 9.03329 12.6466 
157 1 3.61332 7.22663 14.4533 
158 1 5.41997 9.03329 14.4533 
159 1 5.41997 7.22663 16.2599 
160 1 3.61332 9.03329 16.2599 
161 1 3.61332 10.8399 -7.11349e-16 
162 1 5.41997 12.6466 -4.35249e-16 
163 1 5.41997 10.8399 1.80666 
164 1 3.61332 12.6466 1.80666 
165 1 3.61332 10.8399 3.61332 
166 1 5.41997 12.6466 3.61332 
167 1 5.41997 10.8399 5.41997 
168 1 3.61332 12.6466 5.41997 
169 1 3.61332 10.8399 7.22663 
170 1 5.41997 12.6466 7.22663 
171 1 5.41997 10.8399 9.03329 
172 1 3.61332 12.6466 9.03329 
173 1 3.61332 10.8399 10.8399 
174 1 5.41997 12.6466 10.8399 
175 1 5.41997 10.8399 12.6466 
176 1 3.61332 12.6466 12.6466 
177 1 3.61332 10.8399 14.4533 
178 1 5.41997 12.6466 14.4533 
179 1 5.41997 10.8399 16.2599 
180 1 3.61332 12.6466 16.2599 
181 1 3.61332 14.4533 -1.62775e-16 
182 1 5.41997 16.2599 -2.85513e-16 
183 1 5.41997 14.4533 1.80666 
184 1 3.61332 16.2599 1.80666 
185 1 3.61332 14.4533 3.61332 
186 1 5.41997 16.2599 3.61332 
187 1 5.41997 14.4533 5.41997 
188 1 3.61332 16.2599 5.41997 
189 1 3.61332 14.4533 7.22663 
190 1 5.41997 16.2599 7.22663 
191 1 5.41997 14.4533 9.03329 
192 1 3.61332 16.2599 9.03329 
193 1 3.61332 14.4533 10.8399 
194 1 5.41997 16.2599 10.8399 
195 1 5.41997 14.4533 12.6466 
196 1 3.61332 16.2599 12.6466 
197 1 3.61332 14.4533 14.4533 
198 1 5.41997 16.2599 14.4533 
199 1 5.41997 14.4533 16.2599 
200 1 3.61332 16.2599 16.2599 
201 1 7.22663 -8.75697e-16 -6.66846e-16 
202 1 9.03329 1.80666 -7.54132e-16 
203 1 9.03329 -6.53701e-16 1.80666 
204 1 7.22663 1.80666 1.80666 
205 1 7.22663 -6.79705e-16 3.61332 
206 1 9.03329 1.80666 3.61332 
207 1 9.03329 -4.89894e-16 5.41997 
208 1 7.22663 1.80666 5.41997 
209 1 7.22663 -3.89841e-16 7.22663 
210 1 9.03329 1.80666 7.22663 
211 1 9.03329 -2.79482e-16 9.03329 
212 1 7.22663 1.80666 9.03329 
213 1 7.22663 -3.93027e-16 10.8399 
214 1 9.03329 1.80666 10.8399 
215 1 9.03329 -3.06084e-17 12.6466 
216 1 7.22663 1.80666 12.6466 
217 1 7.22663 1.84248e-17 14.4533 
218 1 9.03329 1.80666 14.4533 
219 1 9.03329 -2.47586e-16 16.2599 
220 1 7.22663 1.80666 16.2599 
221 1 7.22663 3.61332 -8.13897e-16 
222 1 9.03329 5.41997 -7.90582e-16 
223 1 9.03329 3.61332 1.80666 
224 1 7.22663 5.41997 1.80666 
225 1 7.22663 3.61332 3.61332 
226 1 9.03329 5.41997 3.61332 
227 1 9.03329 3.61332 5.41997 
228 1 7.22663 5.41997 5.41997 
229 1 7.22663 3.61332 7.22663 
230 1 9.03329 5.41997 7.22663 
231 1 9.03329 3.61332 9.03329 
232 1 7.22663 5.41997 9.03329 
233 1 7.22663 3.61332 10.8399 
234 1 9.03329 5.41997 10.8399 
235 1 9.03329 3.61332 12.6466 
236 1 7.22663 5.41997 12.6466 
237 1 7.22663 3.61332 14.4533 
238 1 9.03329 5.41997 14.4533 
239 1 9.03329 3.61332 16.2599 
240 1 7.22663 5.41997 16.2599 
241 1 7.22663 7.22663 -1.25279e-15 
242 1 9.03329 9.03329 -1.4262e-15 
243 1 9.03329 7.22663 1.80666 
244 1 7.22663 9.03329 1.80666 
245 1 7.22663 7.22663 3.61332 
246 1 9.03329 9.03329 3.61332 
247 1 9.03329 7.22663 5.41997 
248 1 7.22663 9.03329 5.41997 
249 1 7.22663 7.22663 7.22663 
250 1 9.03329 9.03329 7.22663 
251 1 9.03329 7.22663 9.03329 
252 1 7.22663 9.03329 9.03329 
253 1 7.22663 7.22663 10.8399 
254 1 9.03329 9.03329 10.8399 
255 1 9.03329 7.22663 12.6466 
256 1 7.22663 9.03329 12.6466 
257 1 7.22663 7.22663 14.4533 
258 1 9.03329 9.03329 14.4533 
259 1 9.03329 7.22663 16.2599 
260 1 7.22663 9.03329 16.2599 
261 1 7.22663 10.8399 -7.8888e-16 
262 1 9.03329 12.6466 -6.35409e-16 
263 1 9.03329 10.8399 1.80666 
264 1 7.22663 12.6466 1.80666 
265 1 7.22663 10.8399 3.61332 
266 1 9.03329 12.6466 3.61332 
267 1 9.03329 10.8399 5.41997 
268 1 7.22663 12.6466 5.41997 
269 1 7.22663 10.8399 7.22663 
270 1 9.03329 12.6466 7.22663 
271 1 9.03329 10.8399 9.03329 
272 1 7.22663 12.6466 9.03329 
273 1 7.22663 10.8399 10.8399 
274 1 9.03329 12.6466 10.8399 
275 1 9.03329 10.8399 12.6466 
276 1 7.22663 12.6466 12.6466 
277 1 7.22663 10.8399 14.4533 
278 1 9.03329 12.6466 14.4533 
279 1 9.03329 10.8399 16.2599 
280 1 7.22663 12.6466 16.2599 
281 1 7.22663 14.4533 -2.43475e-16 
282 1 9.03329 16.2599 -1.21486e-15 
283 1 9.03329 14.4533 1.80666 
284 1 7.22663 16.2599 1.80666 
285 1 7.22663 14.4533 3.61332 
286 1 9.03329 16.2599 3.61332 
287 1 9.03329 14.4533 5.41997 
288 1 7.22663 16.2599 5.41997 
289 1 7.22663 14.4533 7.22663 
290 1 9.03329 16.2599 7.22663 
291 1 9.03329 14.4533 9.03329 
292 1 7.22663 16.2599 9.03329 
293 1 7.22663 14.4533 10.8399 
294 1 9.03329 16.2599 10.8399 
295 1 9.03329 14.4533 12.6466 
296 1 7.22663 16.2599 12.6466 
297 1 7.22663 14.4533 14.4533 
298 1 9.03329 16.2599 14.4533 
299 1 9.03329 14.4533 16.2599 
300 1 7.22663 16.2599 16.2599 
301 1 10.8399 -1.0903e-15 -9.70676e-16 
302 1 12.6466 1.80666 -1.08277e-15 
303 1 12.6466 -9.23227e-16 1.80666 
304 1 10.8399 1.80666 1.80666 
305 1 10.8399 -9.32549e-16 3.61332 
306 1 12.6466 1.80666 3.61332 
307 1 12.6466 -7.03193e-16 5.41997 
308 1 10.8399 1.80666 5.41997 
309 1 10.8399 -6.02888e-16 7.22663 
310 1 12.6466 1.80666 7.22663 
311 1 12.6466 -4.83044e-16 9.03329 
312 1 10.8399 1.80666 9.03329 
313 1 10.8399 -4.52305e-16 10.8399 
314 1 12.6466 1.80666 10.8399 
315 1 12.6466 -3.01888e-16 12.6466 
316 1 10.8399 1.80666 12.6466 
317 1 10.8399 -3.34913e-17 14.4533 
318 1 12.6466 1.80666 14.4533 
319 1 12.6466 8.30287e-16 16.2599 
320 1 10.8399 1.80666 16.2599 
321 1 10.8399 3.61332 -1.12136e-15 
322 1 12.6466 5.41997 -1.01937e-15 
323 1 12.6466 3.61332 1.80666 
324 1 10.8399 5.41997 1.80666 
325 1 10.8399 3.61332 3.61332 
326 1 12.6466 5.41997 3.61332 
327 1 12.6466 3.61332 5.41997 
328 1 10.8399 5.41997 5.41997 
329 1 10.8399 3.61332 7.22663 
330 1 12.6466 5.41997 7.22663 
331 1 12.6466 3.61332 9.03329 
332 1 10.8399 5.41997 9.03329 
333 1 10.8399 3.61332 10.8399 
334 1 12.6466 5.41997 10.8399 
335 1 12.6466 3.61332 12.6466 
336 1 10.8399 5.41997 12.6466 
337 1 10.8399 3.61332 14.4533 
338 1 12.6466 5.41997 14.4533 
339 1 12.6466 3.61332 16.2599 
340 1 10.8399 5.41997 16.2599 
341 1 10.8399 7.22663 -1.5198e-15 
342 1 12.6466 9.03329 -1.6877e-15 
343 1 12.6466 7.22663 1.80666 
344 1 10.8399 9.03329 1.80666 
345 1 10.8399 7.22663 3.61332 
346 1 12.6466 9.03329 3.61332 
347 1 12.6466 7.22663 5.41997 
348 1 10.8399 9.03329 5.41997 
349 1 10.8399 7.22663 7.22663 
350 1 12.6466 9.03329 7.22663 
351 1 12.6466 7.22663 9.03329 
352 1 10.8399 9.03329 9.03329 
353 1 10.8399 7.22663 10.8399 
354 1 12.6466 9.03329 10.8399 
355 1 12.6466 7.22663 12.6466 
356 1 10.8399 9.03329 12.6466 
357 1 10.8399 7.22663 14.4533 
358 1 12.6466 9.03329 14.4533 
359 1 12.6466 7.22663 16.2599 
360 1 10.8399 9.03329 16.2599 
361 1 10.8399 10.8399 -1.07381e-15 
362 1 12.6466 12.6466 -9.17219e-16 
363 1 12.6466 10.8399 1.80666 
364 1 10.8399 12.6466 1.80666 
365 1 10.8399 10.8399 3.61332 
366 1 12.6466 12.6466 3.61332 
367 1 12.6466 10.8399 5.41997 
368 1 10.8399 12.6466 5.41997 
369 1 10.8399 10.8399 7.22663 
370 1 12.6466 12.6466 7.22663 
371 1 12.6466 10.8399 9.03329 
372 1 10.8399 12.6466 9.03329 
373 1 10.8399 10.8399 10.8399 
374 1 12.6466 12.6466 10.8399 
375 1 12.6466 10.8399 12.6466 
376 1 10.8399 12.6466 12.6466 
377 1 10.8399 10.8399 14.4533 
378 1 12.6466 12.6466 14.4533 
379 1 12.6466 10.8399 16.2599 
380 1 10.8399 12.6466 16.2599 
381 1 10.8399 14.4533 -5.30001e-16 
382 1 12.6466 16.2599 -7.81096e-17 
383 1 12.6466 14.4533 1.80666 
384 1 10.8399 16.2599 1.80666 
385 1 10.8399 14.4533 3.61332 
386 1 12.6466 16.2599 3.61332 
387 1 12.6466 14.4533 5.41997 
388 1 10.8399 16.2599 5.41997 
389 1 10.8399 14.4533 7.22663 
390 1 12.6466 16.2599 7.22663 
391 1 12.6466 14.4533 9.03329 
392 1 10.8399 16.2599 9.03329 
393 1 10.8399 14.4533 10.8399 
394 1 12.6466 16.2599 10.8399 
395 1 12.6466 14.4533 12.6466 
396 1 10.8399 16.2599 12.6466 
397 1 10.8399 14.4533 14.4533 
398 1 12.6466 16.2599 14.4533 
399 1 12.6466 14.4533 16.2599 
400 1 10.8399 16.2599 16.2599 
401 1 14.4552 -2.90831e-16 -1.66496e-16 
402 1 16.283 1.80666 -7.63337e-18 
403 1 16.283 4.0403e-17 1.80666 
404 1 14.4552 1.80666 1.80666 
405 1 14.4552 -5.65072e-17 3.61332 
406 1 16.283 1.80666 3.61332 
407 1 16.283 2.32646e-16 5.41997 
408 1 14.4552 1.80666 5.41997 
409 1 14.4552 1.81347e-16 7.22663 
410 1 16.283 1.80666 7.22663 
411 1 16.283 3.52372e-16 9.03329 
412 1 14.4552 1.80666 9.03329 
413 1 14.4552 3.61192e-16 10.8399 
414 1 16.283 1.80666 10.8399 
415 1 16.283 6.17898e-16 12.6466 
416 1 14.4552 1.80666 12.6466 
417 1 14.4552 6.54005e-16 14.4533 
418 1 16.283 1.80666 14.4533 
419 1 16.283 1.02922e-15 16.2599 
420 1 14.4552 1.80666 16.2599 
421 1 14.4552 3.61332 -3.12491e-16 
422 1 16.283 5.41997 -6.18303e-17 
423 1 16.283 3.61332 1.80666 
424 1 14.4552 5.41997 1.80666 
425 1 14.4552 3.61332 3.61332 
426 1 16.283 5.41997 3.61332 
427 1 16.283 3.61332 5.41997 
428 1 14.4552 5.41997 5.41997 
429 1 14.4552 3.61332 7.22663 
430 1 16.283 5.41997 7.22663 
431 1 16.283 3.61332 9.03329 
432 1 14.4552 5.41997 9.03329 
433 1 14.4552 3.61332 10.8399 
434 1 16.283 5.41997 10.8399 
435 1 16.283 3.61332 12.6466 
436 1 14.4552 5.41997 12.6466 
437 1 14.4552 3.61332 14.4533 
438 1 16.283 5.41997 14.4533 
439 1 16.283 3.61332 16.2599 
440 1 14.4552 5.41997 16.2599 
441 1 14.4552 7.22663 -6.52748e-16 
442 1 16.283 9.03329 -6.3128e-16 
443 1 16.283 7.22663 1.80666 
444 1 14.4552 9.03329 1.80666 