thermo_style    custom step atoms pe ke etotal press vol lx ly lz
thermo_modify   line one format float %.16g
min_style       cg
min_modify      line quadratic
minimize        1.0e-8 1.0e-8 100000 1000000
WARNING: Resetting reneighboring criteria during minimization (../min.cpp:168)
Neighbor list info ...
  2 neighbor list requests
  update every 1 steps, delay 0 steps, check yes
  master list distance cutoff = 6
Memory usage per processor = 10.0868 Mbytes
Step Atoms PotEng KinEng TotEng Press Volume Lx Ly Lz 
       0      500 -1769.57444977972 0 -1769.57444977972 -5225.516510949475 5920.543047620286 18.13884610997863 18.06657979081537 18.06657979081537 
       7      500 -1769.948136331217 0 -1769.948136331217 -5640.08105537337 5920.543047620286 18.13884610997863 18.06657979081537 18.06657979081537 
Loop time of 0.0820091 on 1 procs for 7 steps with 500 atoms

Minimization stats:
  Stopping criterion = energy tolerance
  Energy initial, next-to-last, final = 
        -1769.57444978     -1769.94813122     -1769.94813633
  Force two-norm initial, final = 2.1028 0.00169654
  Force max component initial, final = 0.209546 0.000105785
  Final line search alpha, max atom move = 1 0.000105785
  Iterations, force evaluations = 7 14

Pair  time (%) = 0.0768139 (93.6652)
Neigh time (%) = 0 (0)
Comm  time (%) = 0.000343084 (0.418349)
Outpt time (%) = 0.00398684 (4.86146)
Other time (%) = 0.000865221 (1.05503)

Nlocal:    500 ave 500 max 500 min
Histogram: 1 0 0 0 0 0 0 0 0 0
Nghost:    1956 ave 1956 max 1956 min
Histogram: 1 0 0 0 0 0 0 0 0 0
Neighs:    19500 ave 19500 max 19500 min
Histogram: 1 0 0 0 0 0 0 0 0 0
FullNghs:  39000 ave 39000 max 39000 min
Histogram: 1 0 0 0 0 0 0 0 0 0

Total # of neighbors = 39000
Ave neighs/atom = 78
Neighbor list builds = 0
Dangerous builds = 0
