 
 960 atoms 
 
 1 atom types
 0.00000000000000000000 34.16823063729543008549 xlo xhi
 0.00000000000000000000 19.72703715617573649865 ylo yhi
 0.00000000000000000000 30.20073448097193491435 zlo zhi
 
 Atoms 
 
	1	1	0.00000000000000000000	0.00000000000000000000	0.00000000000000000000
	2	1	4.27102882966192876069	2.46587964452196706233	0.00000000000000000000
	3	1	2.84735255310795265515	0.00000000000000000000	1.00669114936573111940
	4	1	7.11838138276988185993	2.46587964452196706233	1.00669114936573111940
	5	1	1.42367627655397632758	2.46587964452196706233	2.01338229873146223881
	6	1	5.69470510621590531031	0.00000000000000000000	2.01338229873146223881
	7	1	0.00000000000000000000	0.00000000000000000000	3.02007344809719358025
	8	1	4.27102882966192876069	2.46587964452196706233	3.02007344809719358025
	9	1	2.84735255310795265515	0.00000000000000000000	4.02676459746292447761
	10	1	7.11838138276988185993	2.46587964452196706233	4.02676459746292447761
	11	1	1.42367627655397632758	2.46587964452196706233	5.03345574682865581906
	12	1	5.69470510621590531031	0.00000000000000000000	5.03345574682865581906
	13	1	0.00000000000000000000	0.00000000000000000000	6.04014689619438716051
	14	1	4.27102882966192876069	2.46587964452196706233	6.04014689619438716051
	15	1	2.84735255310795265515	0.00000000000000000000	7.04683804556011850195
	16	1	7.11838138276988185993	2.46587964452196706233	7.04683804556011850195
	17	1	1.42367627655397632758	2.46587964452196706233	8.05352919492584895522
	18	1	5.69470510621590531031	0.00000000000000000000	8.05352919492584895522
	19	1	0.00000000000000000000	0.00000000000000000000	9.06022034429158118485
	20	1	4.27102882966192876069	2.46587964452196706233	9.06022034429158118485
	21	1	2.84735255310795265515	0.00000000000000000000	10.06691149365731163812
	22	1	7.11838138276988185993	2.46587964452196706233	10.06691149365731163812
	23	1	1.42367627655397632758	2.46587964452196706233	11.07360264302304386774
	24	1	5.69470510621590531031	0.00000000000000000000	11.07360264302304386774
	25	1	0.00000000000000000000	0.00000000000000000000	12.08029379238877432101
	26	1	4.27102882966192876069	2.46587964452196706233	12.08029379238877432101
	27	1	2.84735255310795265515	0.00000000000000000000	13.08698494175450655064
	28	1	7.11838138276988185993	2.46587964452196706233	13.08698494175450655064
	29	1	1.42367627655397632758	2.46587964452196706233	14.09367609112023700391
	30	1	5.69470510621590531031	0.00000000000000000000	14.09367609112023700391
	31	1	0.00000000000000000000	0.00000000000000000000	15.10036724048596745718
	32	1	4.27102882966192876069	2.46587964452196706233	15.10036724048596745718
	33	1	2.84735255310795265515	0.00000000000000000000	16.10705838985169791044
	34	1	7.11838138276988185993	2.46587964452196706233	16.10705838985169791044
	35	1	1.42367627655397632758	2.46587964452196706233	17.11374953921743014007
	36	1	5.69470510621590531031	0.00000000000000000000	17.11374953921743014007
	37	1	0.00000000000000000000	0.00000000000000000000	18.12044068858316236970
	38	1	4.27102882966192876069	2.46587964452196706233	18.12044068858316236970
	39	1	2.84735255310795265515	0.00000000000000000000	19.12713183794889104661
	40	1	7.11838138276988185993	2.46587964452196706233	19.12713183794889104661
	41	1	1.42367627655397632758	2.46587964452196706233	20.13382298731462327623
	42	1	5.69470510621590531031	0.00000000000000000000	20.13382298731462327623
	43	1	0.00000000000000000000	0.00000000000000000000	21.14051413668035550586
	44	1	4.27102882966192876069	2.46587964452196706233	21.14051413668035550586
	45	1	2.84735255310795265515	0.00000000000000000000	22.14720528604608773549
	46	1	7.11838138276988185993	2.46587964452196706233	22.14720528604608773549
	47	1	1.42367627655397632758	2.46587964452196706233	23.15389643541181996511
	48	1	5.69470510621590531031	0.00000000000000000000	23.15389643541181996511
	49	1	0.00000000000000000000	0.00000000000000000000	24.16058758477754864202
	50	1	4.27102882966192876069	2.46587964452196706233	24.16058758477754864202
	51	1	2.84735255310795265515	0.00000000000000000000	25.16727873414328087165
	52	1	7.11838138276988185993	2.46587964452196706233	25.16727873414328087165
	53	1	1.42367627655397632758	2.46587964452196706233	26.17396988350901310127
	54	1	5.69470510621590531031	0.00000000000000000000	26.17396988350901310127
	55	1	0.00000000000000000000	0.00000000000000000000	27.18066103287474177819
	56	1	4.27102882966192876069	2.46587964452196706233	27.18066103287474177819
	57	1	2.84735255310795265515	0.00000000000000000000	28.18735218224047400781
	58	1	7.11838138276988185993	2.46587964452196706233	28.18735218224047400781
	59	1	1.42367627655397632758	2.46587964452196706233	29.19404333160620623744
	60	1	5.69470510621590531031	0.00000000000000000000	29.19404333160620623744
	61	1	0.00000000000000000000	4.93175928904393412466	0.00000000000000000000
	62	1	4.27102882966192876069	7.39763893356590074291	0.00000000000000000000
	63	1	2.84735255310795265515	4.93175928904393412466	1.00669114936573111940
	64	1	7.11838138276988185993	7.39763893356590074291	1.00669114936573111940
	65	1	1.42367627655397632758	7.39763893356590074291	2.01338229873146223881
	66	1	5.69470510621590531031	4.93175928904393412466	2.01338229873146223881
	67	1	0.00000000000000000000	4.93175928904393412466	3.02007344809719358025
	68	1	4.27102882966192876069	7.39763893356590074291	3.02007344809719358025
	69	1	2.84735255310795265515	4.93175928904393412466	4.02676459746292447761
	70	1	7.11838138276988185993	7.39763893356590074291	4.02676459746292447761
	71	1	1.42367627655397632758	7.39763893356590074291	5.03345574682865581906
	72	1	5.69470510621590531031	4.93175928904393412466	5.03345574682865581906
	73	1	0.00000000000000000000	4.93175928904393412466	6.04014689619438716051
	74	1	4.27102882966192876069	7.39763893356590074291	6.04014689619438716051
	75	1	2.84735255310795265515	4.93175928904393412466	7.04683804556011850195
	76	1	7.11838138276988185993	7.39763893356590074291	7.04683804556011850195
	77	1	1.42367627655397632758	7.39763893356590074291	8.05352919492584895522
	78	1	5.69470510621590531031	4.93175928904393412466	8.05352919492584895522
	79	1	0.00000000000000000000	4.93175928904393412466	9.06022034429158118485
	80	1	4.27102882966192876069	7.39763893356590074291	9.06022034429158118485
	81	1	2.84735255310795265515	4.93175928904393412466	10.06691149365731163812
	82	1	7.11838138276988185993	7.39763893356590074291	10.06691149365731163812
	83	1	1.42367627655397632758	7.39763893356590074291	11.07360264302304386774
	84	1	5.69470510621590531031	4.93175928904393412466	11.07360264302304386774
	85	1	0.00000000000000000000	4.93175928904393412466	12.08029379238877432101
	86	1	4.27102882966192876069	7.39763893356590074291	12.08029379238877432101
	87	1	2.84735255310795265515	4.93175928904393412466	13.08698494175450655064
	88	1	7.11838138276988185993	7.39763893356590074291	13.08698494175450655064
	89	1	1.42367627655397632758	7.39763893356590074291	14.09367609112023700391
	90	1	5.69470510621590531031	4.93175928904393412466	14.09367609112023700391
	91	1	0.00000000000000000000	4.93175928904393412466	15.10036724048596745718
	92	1	4.27102882966192876069	7.39763893356590074291	15.10036724048596745718
	93	1	2.84735255310795265515	4.93175928904393412466	16.10705838985169791044
	94	1	7.11838138276988185993	7.39763893356590074291	16.10705838985169791044
	95	1	1.42367627655397632758	7.39763893356590074291	17.11374953921743014007
	96	1	5.69470510621590531031	4.93175928904393412466	17.11374953921743014007
	97	1	0.00000000000000000000	4.93175928904393412466	18.12044068858316236970
	98	1	4.27102882966192876069	7.39763893356590074291	18.12044068858316236970
	99	1	2.84735255310795265515	4.93175928904393412466	19.12713183794889104661
	100	1	7.11838138276988185993	7.39763893356590074291	19.12713183794889104661
	101	1	1.42367627655397632758	7.39763893356590074291	20.13382298731462327623
	102	1	5.69470510621590531031	4.93175928904393412466	20.13382298731462327623
	103	1	0.00000000000000000000	4.93175928904393412466	21.14051413668035550586
	104	1	4.27102882966192876069	7.39763893356590074291	21.14051413668035550586
	105	1	2.84735255310795265515	4.93175928904393412466	22.14720528604608773549
	106	1	7.11838138276988185993	7.39763893356590074291	22.14720528604608773549
	107	1	1.42367627655397632758	7.39763893356590074291	23.15389643541181996511
	108	1	5.69470510621590531031	4.93175928904393412466	23.15389643541181996511
	109	1	0.00000000000000000000	4.93175928904393412466	24.16058758477754864202
	110	1	4.27102882966192876069	7.39763893356590074291	24.16058758477754864202
	111	1	2.84735255310795265515	4.93175928904393412466	25.16727873414328087165
	112	1	7.11838138276988185993	7.39763893356590074291	25.16727873414328087165
	113	1	1.42367627655397632758	7.39763893356590074291	26.17396988350901310127
	114	1	5.69470510621590531031	4.93175928904393412466	26.17396988350901310127
	115	1	0.00000000000000000000	4.93175928904393412466	27.18066103287474177819
	116	1	4.27102882966192876069	7.39763893356590074291	27.18066103287474177819
	117	1	2.84735255310795265515	4.93175928904393412466	28.18735218224047400781
	118	1	7.11838138276988185993	7.39763893356590074291	28.18735218224047400781
	119	1	1.42367627655397632758	7.39763893356590074291	29.19404333160620623744
	120	1	5.69470510621590531031	4.93175928904393412466	29.19404333160620623744
	121	1	0.00000000000000000000	9.86351857808786824933	0.00000000000000000000
	122	1	4.27102882966192876069	12.32939822260983575575	0.00000000000000000000
	123	1	2.84735255310795265515	9.86351857808786824933	1.00669114936573111940
	124	1	7.11838138276988185993	12.32939822260983575575	1.00669114936573111940
	125	1	1.42367627655397632758	12.32939822260983575575	2.01338229873146223881
	126	1	5.69470510621590531031	9.86351857808786824933	2.01338229873146223881
	127	1	0.00000000000000000000	9.86351857808786824933	3.02007344809719358025
	128	1	4.27102882966192876069	12.32939822260983575575	3.02007344809719358025
	129	1	2.84735255310795265515	9.86351857808786824933	4.02676459746292447761
	130	1	7.11838138276988185993	12.32939822260983575575	4.02676459746292447761
	131	1	1.42367627655397632758	12.32939822260983575575	5.03345574682865581906
	132	1	5.69470510621590531031	9.86351857808786824933	5.03345574682865581906
	133	1	0.00000000000000000000	9.86351857808786824933	6.04014689619438716051
	134	1	4.27102882966192876069	12.32939822260983575575	6.04014689619438716051
	135	1	2.84735255310795265515	9.86351857808786824933	7.04683804556011850195
	136	1	7.11838138276988185993	12.32939822260983575575	7.04683804556011850195
	137	1	1.42367627655397632758	12.32939822260983575575	8.05352919492584895522
	138	1	5.69470510621590531031	9.86351857808786824933	8.05352919492584895522
	139	1	0.00000000000000000000	9.86351857808786824933	9.06022034429158118485
	140	1	4.27102882966192876069	12.32939822260983575575	9.06022034429158118485
	141	1	2.84735255310795265515	9.86351857808786824933	10.06691149365731163812
	142	1	7.11838138276988185993	12.32939822260983575575	10.06691149365731163812
	143	1	1.42367627655397632758	12.32939822260983575575	11.07360264302304386774
	144	1	5.69470510621590531031	9.86351857808786824933	11.07360264302304386774
	145	1	0.00000000000000000000	9.86351857808786824933	12.08029379238877432101
	146	1	4.27102882966192876069	12.32939822260983575575	12.08029379238877432101
	147	1	2.84735255310795265515	9.86351857808786824933	13.08698494175450655064
	148	1	7.11838138276988185993	12.32939822260983575575	13.08698494175450655064
	149	1	1.42367627655397632758	12.32939822260983575575	14.09367609112023700391
	150	1	5.69470510621590531031	9.86351857808786824933	14.09367609112023700391
	151	1	0.00000000000000000000	9.86351857808786824933	15.10036724048596745718
	152	1	4.27102882966192876069	12.32939822260983575575	15.10036724048596745718
	153	1	2.84735255310795265515	9.86351857808786824933	16.10705838985169791044
	154	1	7.11838138276988185993	12.32939822260983575575	16.10705838985169791044
	155	1	1.42367627655397632758	12.32939822260983575575	17.11374953921743014007
	156	1	5.69470510621590531031	9.86351857808786824933	17.11374953921743014007
	157	1	0.00000000000000000000	9.86351857808786824933	18.12044068858316236970
	158	1	4.27102882966192876069	12.32939822260983575575	18.12044068858316236970
	159	1	2.84735255310795265515	9.86351857808786824933	19.12713183794889104661
	160	1	7.11838138276988185993	12.32939822260983575575	19.12713183794889104661
	161	1	1.42367627655397632758	12.32939822260983575575	20.13382298731462327623
	162	1	5.69470510621590531031	9.86351857808786824933	20.13382298731462327623
	163	1	0.00000000000000000000	9.86351857808786824933	21.14051413668035550586
	164	1	4.27102882966192876069	12.32939822260983575575	21.14051413668035550586
	165	1	2.84735255310795265515	9.86351857808786824933	22.14720528604608773549
	166	1	7.11838138276988185993	12.32939822260983575575	22.14720528604608773549
	167	1	1.42367627655397632758	12.32939822260983575575	23.15389643541181996511
	168	1	5.69470510621590531031	9.86351857808786824933	23.15389643541181996511
	169	1	0.00000000000000000000	9.86351857808786824933	24.16058758477754864202
	170	1	4.27102882966192876069	12.32939822260983575575	24.16058758477754864202
	171	1	2.84735255310795265515	9.86351857808786824933	25.16727873414328087165
	172	1	7.11838138276988185993	12.32939822260983575575	25.16727873414328087165
	173	1	1.42367627655397632758	12.32939822260983575575	26.17396988350901310127
	174	1	5.69470510621590531031	9.86351857808786824933	26.17396988350901310127
	175	1	0.00000000000000000000	9.86351857808786824933	27.18066103287474177819
	176	1	4.27102882966192876069	12.32939822260983575575	27.18066103287474177819
	177	1	2.84735255310795265515	9.86351857808786824933	28.18735218224047400781
	178	1	7.11838138276988185993	12.32939822260983575575	28.18735218224047400781
	179	1	1.42367627655397632758	12.32939822260983575575	29.19404333160620623744
	180	1	5.69470510621590531031	9.86351857808786824933	29.19404333160620623744
	181	1	0.00000000000000000000	14.79527786713180148581	0.00000000000000000000
	182	1	4.27102882966192876069	17.26115751165376721588	0.00000000000000000000
	183	1	2.84735255310795265515	14.79527786713180148581	1.00669114936573111940
	184	1	7.11838138276988185993	17.26115751165376721588	1.00669114936573111940
	185	1	1.42367627655397632758	17.26115751165376721588	2.01338229873146223881
	186	1	5.69470510621590531031	14.79527786713180148581	2.01338229873146223881
	187	1	0.00000000000000000000	14.79527786713180148581	3.02007344809719358025
	188	1	4.27102882966192876069	17.26115751165376721588	3.02007344809719358025
	189	1	2.84735255310795265515	14.79527786713180148581	4.02676459746292447761
	190	1	7.11838138276988185993	17.26115751165376721588	4.02676459746292447761
	191	1	1.42367627655397632758	17.26115751165376721588	5.03345574682865581906
	192	1	5.69470510621590531031	14.79527786713180148581	5.03345574682865581906
	193	1	0.00000000000000000000	14.79527786713180148581	6.04014689619438716051
	194	1	4.27102882966192876069	17.26115751165376721588	6.04014689619438716051
	195	1	2.84735255310795265515	14.79527786713180148581	7.04683804556011850195
	196	1	7.11838138276988185993	17.26115751165376721588	7.04683804556011850195
	197	1	1.42367627655397632758	17.26115751165376721588	8.05352919492584895522
	198	1	5.69470510621590531031	14.79527786713180148581	8.05352919492584895522
	199	1	0.00000000000000000000	14.79527786713180148581	9.06022034429158118485
	200	1	4.27102882966192876069	17.26115751165376721588	9.06022034429158118485
	201	1	2.84735255310795265515	14.79527786713180148581	10.06691149365731163812
	202	1	7.11838138276988185993	17.26115751165376721588	10.06691149365731163812
	203	1	1.42367627655397632758	17.26115751165376721588	11.07360264302304386774
	204	1	5.69470510621590531031	14.79527786713180148581	11.07360264302304386774
	205	1	0.00000000000000000000	14.79527786713180148581	12.08029379238877432101
	206	1	4.27102882966192876069	17.26115751165376721588	12.08029379238877432101
	207	1	2.84735255310795265515	14.79527786713180148581	13.08698494175450655064
	208	1	7.11838138276988185993	17.26115751165376721588	13.08698494175450655064
	209	1	1.42367627655397632758	17.26115751165376721588	14.09367609112023700391
	210	1	5.69470510621590531031	14.79527786713180148581	14.09367609112023700391
	211	1	0.00000000000000000000	14.79527786713180148581	15.10036724048596745718
	212	1	4.27102882966192876069	17.26115751165376721588	15.10036724048596745718
	213	1	2.84735255310795265515	14.79527786713180148581	16.10705838985169791044
	214	1	7.11838138276988185993	17.26115751165376721588	16.10705838985169791044
	215	1	1.42367627655397632758	17.26115751165376721588	17.11374953921743014007
	216	1	5.69470510621590531031	14.79527786713180148581	17.11374953921743014007
	217	1	0.00000000000000000000	14.79527786713180148581	18.12044068858316236970
	218	1	4.27102882966192876069	17.26115751165376721588	18.12044068858316236970
	219	1	2.84735255310795265515	14.79527786713180148581	19.12713183794889104661
	220	1	7.11838138276988185993	17.26115751165376721588	19.12713183794889104661
	221	1	1.42367627655397632758	17.26115751165376721588	20.13382298731462327623
	222	1	5.69470510621590531031	14.79527786713180148581	20.13382298731462327623
	223	1	0.00000000000000000000	14.79527786713180148581	21.14051413668035550586
	224	1	4.27102882966192876069	17.26115751165376721588	21.14051413668035550586
	225	1	2.84735255310795265515	14.79527786713180148581	22.14720528604608773549
	226	1	7.11838138276988185993	17.26115751165376721588	22.14720528604608773549
	227	1	1.42367627655397632758	17.26115751165376721588	23.15389643541181996511
	228	1	5.69470510621590531031	14.79527786713180148581	23.15389643541181996511
	229	1	0.00000000000000000000	14.79527786713180148581	24.16058758477754864202
	230	1	4.27102882966192876069	17.26115751165376721588	24.16058758477754864202
	231	1	2.84735255310795265515	14.79527786713180148581	25.16727873414328087165
	232	1	7.11838138276988185993	17.26115751165376721588	25.16727873414328087165
	233	1	1.42367627655397632758	17.26115751165376721588	26.17396988350901310127
	234	1	5.69470510621590531031	14.79527786713180148581	26.17396988350901310127
	235	1	0.00000000000000000000	14.79527786713180148581	27.18066103287474177819
	236	1	4.27102882966192876069	17.26115751165376721588	27.18066103287474177819
	237	1	2.84735255310795265515	14.79527786713180148581	28.18735218224047400781
	238	1	7.11838138276988185993	17.26115751165376721588	28.18735218224047400781
	239	1	1.42367627655397632758	17.26115751165376721588	29.19404333160620623744
	240	1	5.69470510621590531031	14.79527786713180148581	29.19404333160620623744
	241	1	8.54205765932385752137	0.00000000000000000000	0.00000000000000000000
	242	1	12.81308648898578539388	2.46587964452196706233	0.00000000000000000000
	243	1	11.38941021243181062061	0.00000000000000000000	1.00669114936573111940
	244	1	15.66043904209373849312	2.46587964452196706233	1.00669114936573111940
	245	1	9.96573393587783407099	2.46587964452196706233	2.01338229873146223881
	246	1	14.23676276553976194350	0.00000000000000000000	2.01338229873146223881
	247	1	8.54205765932385752137	0.00000000000000000000	3.02007344809719358025
	248	1	12.81308648898578539388	2.46587964452196706233	3.02007344809719358025
	249	1	11.38941021243181062061	0.00000000000000000000	4.02676459746292447761
	250	1	15.66043904209373849312	2.46587964452196706233	4.02676459746292447761
	251	1	9.96573393587783407099	2.46587964452196706233	5.03345574682865581906
	252	1	14.23676276553976194350	0.00000000000000000000	5.03345574682865581906
	253	1	8.54205765932385752137	0.00000000000000000000	6.04014689619438716051
	254	1	12.81308648898578539388	2.46587964452196706233	6.04014689619438716051
	255	1	11.38941021243181062061	0.00000000000000000000	7.04683804556011850195
	256	1	15.66043904209373849312	2.46587964452196706233	7.04683804556011850195
	257	1	9.96573393587783407099	2.46587964452196706233	8.05352919492584895522
	258	1	14.23676276553976194350	0.00000000000000000000	8.05352919492584895522
	259	1	8.54205765932385752137	0.00000000000000000000	9.06022034429158118485
	260	1	12.81308648898578539388	2.46587964452196706233	9.06022034429158118485
	261	1	11.38941021243181062061	0.00000000000000000000	10.06691149365731163812
	262	1	15.66043904209373849312	2.46587964452196706233	10.06691149365731163812
	263	1	9.96573393587783407099	2.46587964452196706233	11.07360264302304386774
	264	1	14.23676276553976194350	0.00000000000000000000	11.07360264302304386774
	265	1	8.54205765932385752137	0.00000000000000000000	12.08029379238877432101
	266	1	12.81308648898578539388	2.46587964452196706233	12.08029379238877432101
	267	1	11.38941021243181062061	0.00000000000000000000	13.08698494175450655064
	268	1	15.66043904209373849312	2.46587964452196706233	13.08698494175450655064
	269	1	9.96573393587783407099	2.46587964452196706233	14.09367609112023700391
	270	1	14.23676276553976194350	0.00000000000000000000	14.09367609112023700391
	271	1	8.54205765932385752137	0.00000000000000000000	15.10036724048596745718
	272	1	12.81308648898578539388	2.46587964452196706233	15.10036724048596745718
	273	1	11.38941021243181062061	0.00000000000000000000	16.10705838985169791044
	274	1	15.66043904209373849312	2.46587964452196706233	16.10705838985169791044
	275	1	9.96573393587783407099	2.46587964452196706233	17.11374953921743014007
	276	1	14.23676276553976194350	0.00000000000000000000	17.11374953921743014007
	277	1	8.54205765932385752137	0.00000000000000000000	18.12044068858316236970
	278	1	12.81308648898578539388	2.46587964452196706233	18.12044068858316236970
	279	1	11.38941021243181062061	0.00000000000000000000	19.12713183794889104661
	280	1	15.66043904209373849312	2.46587964452196706233	19.12713183794889104661
	281	1	9.96573393587783407099	2.46587964452196706233	20.13382298731462327623
	282	1	14.23676276553976194350	0.00000000000000000000	20.13382298731462327623
	283	1	8.54205765932385752137	0.00000000000000000000	21.14051413668035550586
	284	1	12.81308648898578539388	2.46587964452196706233	21.14051413668035550586
	285	1	11.38941021243181062061	0.00000000000000000000	22.14720528604608773549
	286	1	15.66043904209373849312	2.46587964452196706233	22.14720528604608773549
	287	1	9.96573393587783407099	2.46587964452196706233	23.15389643541181996511
	288	1	14.23676276553976194350	0.00000000000000000000	23.15389643541181996511
	289	1	8.54205765932385752137	0.00000000000000000000	24.16058758477754864202
	290	1	12.81308648898578539388	2.46587964452196706233	24.16058758477754864202
	291	1	11.38941021243181062061	0.00000000000000000000	25.16727873414328087165
	292	1	15.66043904209373849312	2.46587964452196706233	25.16727873414328087165
	293	1	9.96573393587783407099	2.46587964452196706233	26.17396988350901310127
	294	1	14.23676276553976194350	0.00000000000000000000	26.17396988350901310127
	295	1	8.54205765932385752137	0.00000000000000000000	27.18066103287474177819
	296	1	12.81308648898578539388	2.46587964452196706233	27.18066103287474177819
	297	1	11.38941021243181062061	0.00000000000000000000	28.18735218224047400781
	298	1	15.66043904209373849312	2.46587964452196706233	28.18735218224047400781
	299	1	9.96573393587783407099	2.46587964452196706233	29.19404333160620623744
	300	1	14.23676276553976194350	0.00000000000000000000	29.19404333160620623744
	301	1	8.54205765932385752137	4.93175928904393412466	0.00000000000000000000
	302	1	12.81308648898578539388	7.39763893356590074291	0.00000000000000000000
	303	1	11.38941021243181062061	4.93175928904393412466	1.00669114936573111940
	304	1	15.66043904209373849312	7.39763893356590074291	1.00669114936573111940
	305	1	9.96573393587783407099	7.39763893356590074291	2.01338229873146223881
	306	1	14.23676276553976194350	4.93175928904393412466	2.01338229873146223881
	307	1	8.54205765932385752137	4.93175928904393412466	3.02007344809719358025
	308	1	12.81308648898578539388	7.39763893356590074291	3.02007344809719358025
	309	1	11.38941021243181062061	4.93175928904393412466	4.02676459746292447761
	310	1	15.66043904209373849312	7.39763893356590074291	4.02676459746292447761
	311	1	9.96573393587783407099	7.39763893356590074291	5.03345574682865581906
	312	1	14.23676276553976194350	4.93175928904393412466	5.03345574682865581906
	313	1	8.54205765932385752137	4.93175928904393412466	6.04014689619438716051
	314	1	12.81308648898578539388	7.39763893356590074291	6.04014689619438716051
	315	1	11.38941021243181062061	4.93175928904393412466	7.04683804556011850195
	316	1	15.66043904209373849312	7.39763893356590074291	7.04683804556011850195
	317	1	9.96573393587783407099	7.39763893356590074291	8.05352919492584895522
	318	1	14.23676276553976194350	4.93175928904393412466	8.05352919492584895522
	319	1	8.54205765932385752137	4.93175928904393412466	9.06022034429158118485
	320	1	12.81308648898578539388	7.39763893356590074291	9.06022034429158118485
	321	1	11.38941021243181062061	4.93175928904393412466	10.06691149365731163812
	322	1	15.66043904209373849312	7.39763893356590074291	10.06691149365731163812
	323	1	9.96573393587783407099	7.39763893356590074291	11.07360264302304386774
	324	1	14.23676276553976194350	4.93175928904393412466	11.07360264302304386774
	325	1	8.54205765932385752137	4.93175928904393412466	12.08029379238877432101
	326	1	12.81308648898578539388	7.39763893356590074291	12.08029379238877432101
	327	1	11.38941021243181062061	4.93175928904393412466	13.08698494175450655064
	328	1	15.66043904209373849312	7.39763893356590074291	13.08698494175450655064
	329	1	9.96573393587783407099	7.39763893356590074291	14.09367609112023700391
	330	1	14.23676276553976194350	4.93175928904393412466	14.09367609112023700391
	331	1	8.54205765932385752137	4.93175928904393412466	15.10036724048596745718
	332	1	12.81308648898578539388	7.39763893356590074291	15.10036724048596745718
	333	1	11.38941021243181062061	4.93175928904393412466	16.10705838985169791044
	334	1	15.66043904209373849312	7.39763893356590074291	16.10705838985169791044
	335	1	9.96573393587783407099	7.39763893356590074291	17.11374953921743014007
	336	1	14.23676276553976194350	4.93175928904393412466	17.11374953921743014007
	337	1	8.54205765932385752137	4.93175928904393412466	18.12044068858316236970
	338	1	12.81308648898578539388	7.39763893356590074291	18.12044068858316236970
	339	1	11.38941021243181062061	4.93175928904393412466	19.12713183794889104661
	340	1	15.66043904209373849312	7.39763893356590074291	19.12713183794889104661
	341	1	9.96573393587783407099	7.39763893356590074291	20.13382298731462327623
	342	1	14.23676276553976194350	4.93175928904393412466	20.13382298731462327623
	343	1	8.54205765932385752137	4.93175928904393412466	21.14051413668035550586
	344	1	12.81308648898578539388	7.39763893356590074291	21.14051413668035550586
	345	1	11.38941021243181062061	4.93175928904393412466	22.14720528604608773549
	346	1	15.66043904209373849312	7.39763893356590074291	22.14720528604608773549
	347	1	9.96573393587783407099	7.39763893356590074291	23.15389643541181996511
	348	1	14.23676276553976194350	4.93175928904393412466	23.15389643541181996511
	349	1	8.54205765932385752137	4.93175928904393412466	24.16058758477754864202
	350	1	12.81308648898578539388	7.39763893356590074291	24.16058758477754864202
	351	1	11.38941021243181062061	4.93175928904393412466	25.16727873414328087165
	352	1	15.66043904209373849312	7.39763893356590074291	25.16727873414328087165
	353	1	9.96573393587783407099	7.39763893356590074291	26.17396988350901310127
	354	1	14.23676276553976194350	4.93175928904393412466	26.17396988350901310127
	355	1	8.54205765932385752137	4.93175928904393412466	27.18066103287474177819
	356	1	12.81308648898578539388	7.39763893356590074291	27.18066103287474177819
	357	1	11.38941021243181062061	4.93175928904393412466	28.18735218224047400781
	358	1	15.66043904209373849312	7.39763893356590074291	28.18735218224047400781
	359	1	9.96573393587783407099	7.39763893356590074291	29.19404333160620623744
	360	1	14.23676276553976194350	4.93175928904393412466	29.19404333160620623744
	361	1	8.54205765932385752137	9.86351857808786824933	0.00000000000000000000
	362	1	12.81308648898578539388	12.32939822260983575575	0.00000000000000000000
	363	1	11.38941021243181062061	9.86351857808786824933	1.00669114936573111940
	364	1	15.66043904209373849312	12.32939822260983575575	1.00669114936573111940
	365	1	9.96573393587783407099	12.32939822260983575575	2.01338229873146223881
	366	1	14.23676276553976194350	9.86351857808786824933	2.01338229873146223881
	367	1	8.54205765932385752137	9.86351857808786824933	3.02007344809719358025
	368	1	12.81308648898578539388	12.32939822260983575575	3.02007344809719358025
	369	1	11.38941021243181062061	9.86351857808786824933	4.02676459746292447761
	370	1	15.66043904209373849312	12.32939822260983575575	4.02676459746292447761
	371	1	9.96573393587783407099	12.32939822260983575575	5.03345574682865581906
	372	1	14.23676276553976194350	9.86351857808786824933	5.03345574682865581906
	373	1	8.54205765932385752137	9.86351857808786824933	6.04014689619438716051
	374	1	12.81308648898578539388	12.32939822260983575575	6.04014689619438716051
	375	1	11.38941021243181062061	9.86351857808786824933	7.04683804556011850195
	376	1	15.66043904209373849312	12.32939822260983575575	7.04683804556011850195
	377	1	9.96573393587783407099	12.32939822260983575575	8.05352919492584895522
	378	1	14.23676276553976194350	9.86351857808786824933	8.05352919492584895522
	379	1	8.54205765932385752137	9.86351857808786824933	9.06022034429158118485
	380	1	12.81308648898578539388	12.32939822260983575575	9.06022034429158118485
	381	1	11.38941021243181062061	9.86351857808786824933	10.06691149365731163812
	382	1	15.66043904209373849312	12.32939822260983575575	10.06691149365731163812
	383	1	9.96573393587783407099	12.32939822260983575575	11.07360264302304386774
	384	1	14.23676276553976194350	9.86351857808786824933	11.07360264302304386774
	385	1	8.54205765932385752137	9.86351857808786824933	12.08029379238877432101
	386	1	12.81308648898578539388	12.32939822260983575575	12.08029379238877432101
	387	1	11.38941021243181062061	9.86351857808786824933	13.08698494175450655064