ITEM: TIMESTEP
0
ITEM: NUMBER OF ATOMS
960
ITEM: BOX BOUNDS pp pp ss
0 34.1682
0 19.727
-0.00302007 29.1971
ITEM: ATOMS id type x y z 
1 1 0 0 0 
3 1 2.84735 0 1.00669 
5 1 1.42368 2.46588 2.01338 
7 1 0 0 3.02007 
2 1 4.27103 2.46588 0 
6 1 5.69471 0 2.01338 
8 1 4.27103 2.46588 3.02007 
4 1 7.11838 2.46588 1.00669 
241 1 8.54206 0 0 
245 1 9.96573 2.46588 2.01338 
247 1 8.54206 0 3.02007 
242 1 12.8131 2.46588 0 
243 1 11.3894 0 1.00669 
248 1 12.8131 2.46588 3.02007 
244 1 15.6604 2.46588 1.00669 
246 1 14.2368 0 2.01338 
481 1 17.0841 0 0 
483 1 19.9315 0 1.00669 
485 1 18.5078 2.46588 2.01338 
487 1 17.0841 0 3.02007 
482 1 21.3551 2.46588 0 
486 1 22.7788 0 2.01338 
488 1 21.3551 2.46588 3.02007 
484 1 24.2025 2.46588 1.00669 
721 1 25.6262 0 0 
725 1 27.0498 2.46588 2.01338 
727 1 25.6262 0 3.02007 
722 1 29.8972 2.46588 0 
723 1 28.4735 0 1.00669 
728 1 29.8972 2.46588 3.02007 
724 1 32.7446 2.46588 1.00669 
726 1 31.3209 0 2.01338 
61 1 0 4.93176 0 
63 1 2.84735 4.93176 1.00669 
65 1 1.42368 7.39764 2.01338 
67 1 0 4.93176 3.02007 
62 1 4.27103 7.39764 0 
66 1 5.69471 4.93176 2.01338 
68 1 4.27103 7.39764 3.02007 
64 1 7.11838 7.39764 1.00669 
301 1 8.54206 4.93176 0 
305 1 9.96573 7.39764 2.01338 
307 1 8.54206 4.93176 3.02007 
302 1 12.8131 7.39764 0 
303 1 11.3894 4.93176 1.00669 
308 1 12.8131 7.39764 3.02007 
304 1 15.6604 7.39764 1.00669 
306 1 14.2368 4.93176 2.01338 
541 1 17.0841 4.93176 0 
543 1 19.9315 4.93176 1.00669 
545 1 18.5078 7.39764 2.01338 
547 1 17.0841 4.93176 3.02007 
542 1 21.3551 7.39764 0 
546 1 22.7788 4.93176 2.01338 
548 1 21.3551 7.39764 3.02007 
544 1 24.2025 7.39764 1.00669 
781 1 25.6262 4.93176 0 
785 1 27.0498 7.39764 2.01338 
787 1 25.6262 4.93176 3.02007 
782 1 29.8972 7.39764 0 
783 1 28.4735 4.93176 1.00669 
788 1 29.8972 7.39764 3.02007 
784 1 32.7446 7.39764 1.00669 
786 1 31.3209 4.93176 2.01338 
121 1 0 9.86352 0 
123 1 2.84735 9.86352 1.00669 
127 1 0 9.86352 3.02007 
126 1 5.69471 9.86352 2.01338 
361 1 8.54206 9.86352 0 
367 1 8.54206 9.86352 3.02007 
363 1 11.3894 9.86352 1.00669 
366 1 14.2368 9.86352 2.01338 
601 1 17.0841 9.86352 0 
603 1 19.9315 9.86352 1.00669 
607 1 17.0841 9.86352 3.02007 
606 1 22.7788 9.86352 2.01338 
841 1 25.6262 9.86352 0 
847 1 25.6262 9.86352 3.02007 
843 1 28.4735 9.86352 1.00669 
846 1 31.3209 9.86352 2.01338 
125 1 1.42368 12.3294 2.01338 
181 1 0 14.7953 0 
183 1 2.84735 14.7953 1.00669 
187 1 0 14.7953 3.02007 
122 1 4.27103 12.3294 0 
128 1 4.27103 12.3294 3.02007 
186 1 5.69471 14.7953 2.01338 
124 1 7.11838 12.3294 1.00669 
365 1 9.96573 12.3294 2.01338 
421 1 8.54206 14.7953 0 
427 1 8.54206 14.7953 3.02007 
362 1 12.8131 12.3294 0 
368 1 12.8131 12.3294 3.02007 
423 1 11.3894 14.7953 1.00669 
364 1 15.6604 12.3294 1.00669 
426 1 14.2368 14.7953 2.01338 
605 1 18.5078 12.3294 2.01338 
661 1 17.0841 14.7953 0 
663 1 19.9315 14.7953 1.00669 
667 1 17.0841 14.7953 3.02007 
602 1 21.3551 12.3294 0 
608 1 21.3551 12.3294 3.02007 
666 1 22.7788 14.7953 2.01338 
604 1 24.2025 12.3294 1.00669 
845 1 27.0498 12.3294 2.01338 
901 1 25.6262 14.7953 0 
907 1 25.6262 14.7953 3.02007 
842 1 29.8972 12.3294 0 
848 1 29.8972 12.3294 3.02007 
903 1 28.4735 14.7953 1.00669 
844 1 32.7446 12.3294 1.00669 
906 1 31.3209 14.7953 2.01338 
185 1 1.42368 17.2612 2.01338 
182 1 4.27103 17.2612 0 
188 1 4.27103 17.2612 3.02007 
184 1 7.11838 17.2612 1.00669 
425 1 9.96573 17.2612 2.01338 
422 1 12.8131 17.2612 0 
428 1 12.8131 17.2612 3.02007 
424 1 15.6604 17.2612 1.00669 
665 1 18.5078 17.2612 2.01338 
662 1 21.3551 17.2612 0 
668 1 21.3551 17.2612 3.02007 
664 1 24.2025 17.2612 1.00669 
905 1 27.0498 17.2612 2.01338 
902 1 29.8972 17.2612 0 
908 1 29.8972 17.2612 3.02007 
904 1 32.7446 17.2612 1.00669 
9 1 2.84735 0 4.02676 
11 1 1.42368 2.46588 5.03346 
13 1 0 0 6.04015 
15 1 2.84735 0 7.04684 
12 1 5.69471 0 5.03346 
14 1 4.27103 2.46588 6.04015 
10 1 7.11838 2.46588 4.02676 
16 1 7.11838 2.46588 7.04684 
251 1 9.96573 2.46588 5.03346 
253 1 8.54206 0 6.04015 
249 1 11.3894 0 4.02676 
254 1 12.8131 2.46588 6.04015 
255 1 11.3894 0 7.04684 
250 1 15.6604 2.46588 4.02676 
252 1 14.2368 0 5.03346 
256 1 15.6604 2.46588 7.04684 
489 1 19.9315 0 4.02676 
491 1 18.5078 2.46588 5.03346 
493 1 17.0841 0 6.04015 
495 1 19.9315 0 7.04684 
492 1 22.7788 0 5.03346 
494 1 21.3551 2.46588 6.04015 
490 1 24.2025 2.46588 4.02676 
496 1 24.2025 2.46588 7.04684 
731 1 27.0498 2.46588 5.03346 
733 1 25.6262 0 6.04015 
729 1 28.4735 0 4.02676 
734 1 29.8972 2.46588 6.04015 
735 1 28.4735 0 7.04684 
730 1 32.7446 2.46588 4.02676 
732 1 31.3209 0 5.03346 
736 1 32.7446 2.46588 7.04684 
69 1 2.84735 4.93176 4.02676 
71 1 1.42368 7.39764 5.03346 
73 1 0 4.93176 6.04015 
75 1 2.84735 4.93176 7.04684 
72 1 5.69471 4.93176 5.03346 
74 1 4.27103 7.39764 6.04015 
70 1 7.11838 7.39764 4.02676 
76 1 7.11838 7.39764 7.04684 
311 1 9.96573 7.39764 5.03346 
313 1 8.54206 4.93176 6.04015 
309 1 11.3894 4.93176 4.02676 
314 1 12.8131 7.39764 6.04015 
315 1 11.3894 4.93176 7.04684 
310 1 15.6604 7.39764 4.02676 
312 1 14.2368 4.93176 5.03346 
316 1 15.6604 7.39764 7.04684 
549 1 19.9315 4.93176 4.02676 
551 1 18.5078 7.39764 5.03346 
553 1 17.0841 4.93176 6.04015 
555 1 19.9315 4.93176 7.04684 
552 1 22.7788 4.93176 5.03346 
554 1 21.3551 7.39764 6.04015 
550 1 24.2025 7.39764 4.02676 
556 1 24.2025 7.39764 7.04684 
791 1 27.0498 7.39764 5.03346 
793 1 25.6262 4.93176 6.04015 
789 1 28.4735 4.93176 4.02676 
794 1 29.8972 7.39764 6.04015 
795 1 28.4735 4.93176 7.04684 
790 1 32.7446 7.39764 4.02676 
792 1 31.3209 4.93176 5.03346 
796 1 32.7446 7.39764 7.04684 
129 1 2.84735 9.86352 4.02676 
133 1 0 9.86352 6.04015 
135 1 2.84735 9.86352 7.04684 
132 1 5.69471 9.86352 5.03346 
373 1 8.54206 9.86352 6.04015 
369 1 11.3894 9.86352 4.02676 
375 1 11.3894 9.86352 7.04684 
372 1 14.2368 9.86352 5.03346 
609 1 19.9315 9.86352 4.02676 
613 1 17.0841 9.86352 6.04015 
615 1 19.9315 9.86352 7.04684 
612 1 22.7788 9.86352 5.03346 
853 1 25.6262 9.86352 6.04015 
849 1 28.4735 9.86352 4.02676 
855 1 28.4735 9.86352 7.04684 
852 1 31.3209 9.86352 5.03346 
131 1 1.42368 12.3294 5.03346 
189 1 2.84735 14.7953 4.02676 
193 1 0 14.7953 6.04015 
195 1 2.84735 14.7953 7.04684 
134 1 4.27103 12.3294 6.04015 
192 1 5.69471 14.7953 5.03346 
130 1 7.11838 12.3294 4.02676 
136 1 7.11838 12.3294 7.04684 
371 1 9.96573 12.3294 5.03346 
433 1 8.54206 14.7953 6.04015 
374 1 12.8131 12.3294 6.04015 
429 1 11.3894 14.7953 4.02676 
435 1 11.3894 14.7953 7.04684 
370 1 15.6604 12.3294 4.02676 
376 1 15.6604 12.3294 7.04684 
432 1 14.2368 14.7953 5.03346 
611 1 18.5078 12.3294 5.03346 
669 1 19.9315 14.7953 4.02676 
673 1 17.0841 14.7953 6.04015 
675 1 19.9315 14.7953 7.04684 
614 1 21.3551 12.3294 6.04015 
672 1 22.7788 14.7953 5.03346 
610 1 24.2025 12.3294 4.02676 
616 1 24.2025 12.3294 7.04684 
851 1 27.0498 12.3294 5.03346 
913 1 25.6262 14.7953 6.04015 
854 1 29.8972 12.3294 6.04015 
909 1 28.4735 14.7953 4.02676 
915 1 28.4735 14.7953 7.04684 
850 1 32.7446 12.3294 4.02676 
856 1 32.7446 12.3294 7.04684 
912 1 31.3209 14.7953 5.03346 
191 1 1.42368 17.2612 5.03346 
194 1 4.27103 17.2612 6.04015 
190 1 7.11838 17.2612 4.02676 
196 1 7.11838 17.2612 7.04684 
431 1 9.96573 17.2612 5.03346 
434 1 12.8131 17.2612 6.04015 
430 1 15.6604 17.2612 4.02676 
436 1 15.6604 17.2612 7.04684 
671 1 18.5078 17.2612 5.03346 
674 1 21.3551 17.2612 6.04015 
670 1 24.2025 17.2612 4.02676 
676 1 24.2025 17.2612 7.04684 
911 1 27.0498 17.2612 5.03346 
914 1 29.8972 17.2612 6.04015 
910 1 32.7446 17.2612 4.02676 
916 1 32.7446 17.2612 7.04684 
17 1 1.42368 2.46588 8.05353 
19 1 0 0 9.06022 
21 1 2.84735 0 10.0669 
18 1 5.69471 0 8.05353 
20 1 4.27103 2.46588 9.06022 
22 1 7.11838 2.46588 10.0669 
257 1 9.96573 2.46588 8.05353 
259 1 8.54206 0 9.06022 
260 1 12.8131 2.46588 9.06022 
261 1 11.3894 0 10.0669 
258 1 14.2368 0 8.05353 
262 1 15.6604 2.46588 10.0669 
497 1 18.5078 2.46588 8.05353 
499 1 17.0841 0 9.06022 
501 1 19.9315 0 10.0669 
498 1 22.7788 0 8.05353 
500 1 21.3551 2.46588 9.06022 
502 1 24.2025 2.46588 10.0669 
737 1 27.0498 2.46588 8.05353 
739 1 25.6262 0 9.06022 
740 1 29.8972 2.46588 9.06022 
741 1 28.4735 0 10.0669 
738 1 31.3209 0 8.05353 
742 1 32.7446 2.46588 10.0669 
77 1 1.42368 7.39764 8.05353 
79 1 0 4.93176 9.06022 
81 1 2.84735 4.93176 10.0669 
78 1 5.69471 4.93176 8.05353 
80 1 4.27103 7.39764 9.06022 
82 1 7.11838 7.39764 10.0669 
317 1 9.96573 7.39764 8.05353 
319 1 8.54206 4.93176 9.06022 
320 1 12.8131 7.39764 9.06022 
321 1 11.3894 4.93176 10.0669 
318 1 14.2368 4.93176 8.05353 
322 1 15.6604 7.39764 10.0669 
557 1 18.5078 7.39764 8.05353 
559 1 17.0841 4.93176 9.06022 
561 1 19.9315 4.93176 10.0669 
558 1 22.7788 4.93176 8.05353 
560 1 21.3551 7.39764 9.06022 
562 1 24.2025 7.39764 10.0669 
797 1 27.0498 7.39764 8.05353 
799 1 25.6262 4.93176 9.06022 
800 1 29.8972 7.39764 9.06022 
801 1 28.4735 4.93176 10.0669 
798 1 31.3209 4.93176 8.05353 
802 1 32.7446 7.39764 10.0669 
139 1 0 9.86352 9.06022 
141 1 2.84735 9.86352 10.0669 
138 1 5.69471 9.86352 8.05353 
379 1 8.54206 9.86352 9.06022 
381 1 11.3894 9.86352 10.0669 
378 1 14.2368 9.86352 8.05353 
619 1 17.0841 9.86352 9.06022 
621 1 19.9315 9.86352 10.0669 
618 1 22.7788 9.86352 8.05353 
859 1 25.6262 9.86352 9.06022 
861 1 28.4735 9.86352 10.0669 
858 1 31.3209 9.86352 8.05353 
137 1 1.42368 12.3294 8.05353 
199 1 0 14.7953 9.06022 
201 1 2.84735 14.7953 10.0669 
140 1 4.27103 12.3294 9.06022 
198 1 5.69471 14.7953 8.05353 
142 1 7.11838 12.3294 10.0669 
377 1 9.96573 12.3294 8.05353 
439 1 8.54206 14.7953 9.06022 
380 1 12.8131 12.3294 9.06022 
441 1 11.3894 14.7953 10.0669 
382 1 15.6604 12.3294 10.0669 
438 1 14.2368 14.7953 8.05353 
617 1 18.5078 12.3294 8.05353 
679 1 17.0841 14.7953 9.06022 
681 1 19.9315 14.7953 10.0669 
620 1 21.3551 12.3294 9.06022 
678 1 22.7788 14.7953 8.05353 
622 1 24.2025 12.3294 10.0669 
857 1 27.0498 12.3294 8.05353 
919 1 25.6262 14.7953 9.06022 
860 1 29.8972 12.3294 9.06022 
921 1 28.4735 14.7953 10.0669 
862 1 32.7446 12.3294 10.0669 
918 1 31.3209 14.7953 8.05353 
197 1 1.42368 17.2612 8.05353 
200 1 4.27103 17.2612 9.06022 
202 1 7.11838 17.2612 10.0669 
437 1 9.96573 17.2612 8.05353 
440 1 12.8131 17.2612 9.06022 
442 1 15.6604 17.2612 10.0669 
677 1 18.5078 17.2612 8.05353 
680 1 21.3551 17.2612 9.06022 
682 1 24.2025 17.2612 10.0669 
917 1 27.0498 17.2612 8.05353 
920 1 29.8972 17.2612 9.06022 
922 1 32.7446 17.2612 10.0669 
23 1 1.42368 2.46588 11.0736 
25 1 0 0 12.0803 
27 1 2.84735 0 13.087 
29 1 1.42368 2.46588 14.0937 
24 1 5.69471 0 11.0736 
26 1 4.27103 2.46588 12.0803 
30 1 5.69471 0 14.0937 
28 1 7.11838 2.46588 13.087 
263 1 9.96573 2.46588 11.0736 
265 1 8.54206 0 12.0803 
269 1 9.96573 2.46588 14.0937 
266 1 12.8131 2.46588 12.0803 
267 1 11.3894 0 13.087 
264 1 14.2368 0 11.0736 
268 1 15.6604 2.46588 13.087 
270 1 14.2368 0 14.0937 
503 1 18.5078 2.46588 11.0736 
505 1 17.0841 0 12.0803 
507 1 19.9315 0 13.087 
509 1 18.5078 2.46588 14.0937 
504 1 22.7788 0 11.0736 
506 1 21.3551 2.46588 12.0803 
510 1 22.7788 0 14.0937 
508 1 24.2025 2.46588 13.087 
743 1 27.0498 2.46588 11.0736 
745 1 25.6262 0 12.0803 
749 1 27.0498 2.46588 14.0937 
746 1 29.8972 2.46588 12.0803 
747 1 28.4735 0 13.087 
744 1 31.3209 0 11.0736 
748 1 32.7446 2.46588 13.087 
750 1 31.3209 0 14.0937 
83 1 1.42368 7.39764 11.0736 
85 1 0 4.93176 12.0803 
87 1 2.84735 4.93176 13.087 
89 1 1.42368 7.39764 14.0937 
84 1 5.69471 4.93176 11.0736 
86 1 4.27103 7.39764 12.0803 
90 1 5.69471 4.93176 14.0937 
88 1 7.11838 7.39764 13.087 
323 1 9.96573 7.39764 11.0736 
325 1 8.54206 4.93176 12.0803 
329 1 9.96573 7.39764 14.0937 
326 1 12.8131 7.39764 12.0803 
327 1 11.3894 4.93176 13.087 
324 1 14.2368 4.93176 11.0736 
328 1 15.6604 7.39764 13.087 
330 1 14.2368 4.93176 14.0937 
563 1 18.5078 7.39764 11.0736 
565 1 17.0841 4.93176 12.0803 
567 1 19.9315 4.93176 13.087 
569 1 18.5078 7.39764 14.0937 
564 1 22.7788 4.93176 11.0736 
566 1 21.3551 7.39764 12.0803 
570 1 22.7788 4.93176 14.0937 
568 1 24.2025 7.39764 13.087 
803 1 27.0498 7.39764 11.0736 
805 1 25.6262 4.93176 12.0803 
809 1 27.0498 7.39764 14.0937 
806 1 29.8972 7.39764 12.0803 
807 1 28.4735 4.93176 13.087 
804 1 31.3209 4.93176 11.0736 
808 1 32.7446 7.39764 13.087 
810 1 31.3209 4.93176 14.0937 
145 1 0 9.86352 12.0803 
147 1 2.84735 9.86352 13.087 
144 1 5.69471 9.86352 11.0736 
150 1 5.69471 9.86352 14.0937 
385 1 8.54206 9.86352 12.0803 
387 1 11.3894 9.86352 13.087 
384 1 14.2368 9.86352 11.0736 
390 1 14.2368 9.86352 14.0937 
625 1 17.0841 9.86352 12.0803 
627 1 19.9315 9.86352 13.087 
624 1 22.7788 9.86352 11.0736 
630 1 22.7788 9.86352 14.0937 
865 1 25.6262 9.86352 12.0803 
867 1 28.4735 9.86352 13.087 
864 1 31.3209 9.86352 11.0736 
870 1 31.3209 9.86352 14.0937 
143 1 1.42368 12.3294 11.0736 
149 1 1.42368 12.3294 14.0937 
205 1 0 14.7953 12.0803 
207 1 2.84735 14.7953 13.087 
146 1 4.27103 12.3294 12.0803 
204 1 5.69471 14.7953 11.0736 
210 1 5.69471 14.7953 14.0937 
148 1 7.11838 12.3294 13.087 
383 1 9.96573 12.3294 11.0736 
389 1 9.96573 12.3294 14.0937 
445 1 8.54206 14.7953 12.0803 
386 1 12.8131 12.3294 12.0803 
447 1 11.3894 14.7953 13.087 
388 1 15.6604 12.3294 13.087 
444 1 14.2368 14.7953 11.0736 
450 1 14.2368 14.7953 14.0937 
623 1 18.5078 12.3294 11.0736 
629 1 18.5078 12.3294 14.0937 
685 1 17.0841 14.7953 12.0803 
687 1 19.9315 14.7953 13.087 
626 1 21.3551 12.3294 12.0803 
684 1 22.7788 14.7953 11.0736 
690 1 22.7788 14.7953 14.0937 
628 1 24.2025 12.3294 13.087 
863 1 27.0498 12.3294 11.0736 
869 1 27.0498 12.3294 14.0937 
925 1 25.6262 14.7953 12.0803 
866 1 29.8972 12.3294 12.0803 
927 1 28.4735 14.7953 13.087 
868 1 32.7446 12.3294 13.087 
924 1 31.3209 14.7953 11.0736 
930 1 31.3209 14.7953 14.0937 
203 1 1.42368 17.2612 11.0736 
209 1 1.42368 17.2612 14.0937 
206 1 4.27103 17.2612 12.0803 
208 1 7.11838 17.2612 13.087 
443 1 9.96573 17.2612 11.0736 
449 1 9.96573 17.2612 14.0937 
446 1 12.8131 17.2612 12.0803 
448 1 15.6604 17.2612 13.087 
683 1 18.5078 17.2612 11.0736 
689 1 18.5078 17.2612 14.0937 
686 1 21.3551 17.2612 12.0803 
688 1 24.2025 17.2612 13.087 
923 1 27.0498 17.2612 11.0736 
929 1 27.0498 17.2612 14.0937 
926 1 29.8972 17.2612 12.0803 
928 1 32.7446 17.2612 13.087 
31 1 0 0 15.1004 
33 1 2.84735 0 16.1071 
35 1 1.42368 2.46588 17.1137 
37 1 0 0 18.1204 
32 1 4.27103 2.46588 15.1004 
36 1 5.69471 0 17.1137 
38 1 4.27103 2.46588 18.1204 
34 1 7.11838 2.46588 16.1071 
271 1 8.54206 0 15.1004 
275 1 9.96573 2.46588 17.1137 
277 1 8.54206 0 18.1204 
272 1 12.8131 2.46588 15.1004 
273 1 11.3894 0 16.1071 
278 1 12.8131 2.46588 18.1204 
274 1 15.6604 2.46588 16.1071 
276 1 14.2368 0 17.1137 
511 1 17.0841 0 15.1004 
513 1 19.9315 0 16.1071 
515 1 18.5078 2.46588 17.1137 
517 1 17.0841 0 18.1204 
512 1 21.3551 2.46588 15.1004 
516 1 22.7788 0 17.1137 
518 1 21.3551 2.46588 18.1204 
514 1 24.2025 2.46588 16.1071 
751 1 25.6262 0 15.1004 
755 1 27.0498 2.46588 17.1137 
757 1 25.6262 0 18.1204 
752 1 29.8972 2.46588 15.1004 
753 1 28.4735 0 16.1071 
758 1 29.8972 2.46588 18.1204 
754 1 32.7446 2.46588 16.1071 
756 1 31.3209 0 17.1137 
91 1 0 4.93176 15.1004 
93 1 2.84735 4.93176 16.1071 
95 1 1.42368 7.39764 17.1137 
97 1 0 4.93176 18.1204 
92 1 4.27103 7.39764 15.1004 
96 1 5.69471 4.93176 17.1137 
98 1 4.27103 7.39764 18.1204 
94 1 7.11838 7.39764 16.1071 
331 1 8.54206 4.93176 15.1004 
335 1 9.96573 7.39764 17.1137 
337 1 8.54206 4.93176 18.1204 
332 1 12.8131 7.39764 15.1004 
333 1 11.3894 4.93176 16.1071 
338 1 12.8131 7.39764 18.1204 
334 1 15.6604 7.39764 16.1071 
336 1 14.2368 4.93176 17.1137 
571 1 17.0841 4.93176 15.1004 
573 1 19.9315 4.93176 16.1071 
575 1 18.5078 7.39764 17.1137 
577 1 17.0841 4.93176 18.1204 
572 1 21.3551 7.39764 15.1004 
576 1 22.7788 4.93176 17.1137 
578 1 21.3551 7.39764 18.1204 
574 1 24.2025 7.39764 16.1071 
811 1 25.6262 4.93176 15.1004 
815 1 27.0498 7.39764 17.1137 
817 1 25.6262 4.93176 18.1204 
812 1 29.8972 7.39764 15.1004 
813 1 28.4735 4.93176 16.1071 
818 1 29.8972 7.39764 18.1204 
814 1 32.7446 7.39764 16.1071 
816 1 31.3209 4.93176 17.1137 
151 1 0 9.86352 15.1004 
153 1 2.84735 9.86352 16.1071 
157 1 0 9.86352 18.1204 
156 1 5.69471 9.86352 17.1137 
391 1 8.54206 9.86352 15.1004 
397 1 8.54206 9.86352 18.1204 
393 1 11.3894 9.86352 16.1071 
396 1 14.2368 9.86352 17.1137 
631 1 17.0841 9.86352 15.1004 
633 1 19.9315 9.86352 16.1071 
637 1 17.0841 9.86352 18.1204 
636 1 22.7788 9.86352 17.1137 
871 1 25.6262 9.86352 15.1004 
877 1 25.6262 9.86352 18.1204 
873 1 28.4735 9.86352 16.1071 
876 1 31.3209 9.86352 17.1137 
155 1 1.42368 12.3294 17.1137 
211 1 0 14.7953 15.1004 
213 1 2.84735 14.7953 16.1071 
217 1 0 14.7953 18.1204 
152 1 4.27103 12.3294 15.1004 
158 1 4.27103 12.3294 18.1204 
216 1 5.69471 14.7953 17.1137 
154 1 7.11838 12.3294 16.1071 
395 1 9.96573 12.3294 17.1137 
451 1 8.54206 14.7953 15.1004 
457 1 8.54206 14.7953 18.1204 
392 1 12.8131 12.3294 15.1004 
398 1 12.8131 12.3294 18.1204 
453 1 11.3894 14.7953 16.1071 
394 1 15.6604 12.3294 16.1071 
456 1 14.2368 14.7953 17.1137 
635 1 18.5078 12.3294 17.1137 
691 1 17.0841 14.7953 15.1004 
693 1 19.9315 14.7953 16.1071 
697 1 17.0841 14.7953 18.1204 
632 1 21.3551 12.3294 15.1004 
638 1 21.3551 12.3294 18.1204 
696 1 22.7788 14.7953 17.1137 
634 1 24.2025 12.3294 16.1071 
875 1 27.0498 12.3294 17.1137 
931 1 25.6262 14.7953 15.1004 
937 1 25.6262 14.7953 18.1204 
872 1 29.8972 12.3294 15.1004 
878 1 29.8972 12.3294 18.1204 
933 1 28.4735 14.7953 16.1071 
874 1 32.7446 12.3294 16.1071 
936 1 31.3209 14.7953 17.1137 
215 1 1.42368 17.2612 17.1137 
212 1 4.27103 17.2612 15.1004 
218 1 4.27103 17.2612 18.1204 
214 1 7.11838 17.2612 16.1071 
455 1 9.96573 17.2612 17.1137 
452 1 12.8131 17.2612 15.1004 
458 1 12.8131 17.2612 18.1204 
454 1 15.6604 17.2612 16.1071 
695 1 18.5078 17.2612 17.1137 
692 1 21.3551 17.2612 15.1004 
698 1 21.3551 17.2612 18.1204 
694 1 24.2025 17.2612 16.1071 
935 1 27.0498 17.2612 17.1137 
932 1 29.8972 17.2612 15.1004 
938 1 29.8972 17.2612 18.1204 
934 1 32.7446 17.2612 16.1071 
39 1 2.84735 0 19.1271 
41 1 1.42368 2.46588 20.1338 
43 1 0 0 21.1405 
42 1 5.69471 0 20.1338 
44 1 4.27103 2.46588 21.1405 
40 1 7.11838 2.46588 19.1271 
281 1 9.96573 2.46588 20.1338 
283 1 8.54206 0 21.1405 
279 1 11.3894 0 19.1271 
284 1 12.8131 2.46588 21.1405 
280 1 15.6604 2.46588 19.1271 
282 1 14.2368 0 20.1338 
519 1 19.9315 0 19.1271 
521 1 18.5078 2.46588 20.1338 
523 1 17.0841 0 21.1405 
522 1 22.7788 0 20.1338 
524 1 21.3551 2.46588 21.1405 
520 1 24.2025 2.46588 19.1271 
761 1 27.0498 2.46588 20.1338 
763 1 25.6262 0 21.1405 
759 1 28.4735 0 19.1271 
764 1 29.8972 2.46588 21.1405 
760 1 32.7446 2.46588 19.1271 
762 1 31.3209 0 20.1338 
99 1 2.84735 4.93176 19.1271 
101 1 1.42368 7.39764 20.1338 
103 1 0 4.93176 21.1405 
102 1 5.69471 4.93176 20.1338 
104 1 4.27103 7.39764 21.1405 
100 1 7.11838 7.39764 19.1271 
341 1 9.96573 7.39764 20.1338 
343 1 8.54206 4.93176 21.1405 
339 1 11.3894 4.93176 19.1271 
344 1 12.8131 7.39764 21.1405 
340 1 15.6604 7.39764 19.1271 
342 1 14.2368 4.93176 20.1338 
579 1 19.9315 4.93176 19.1271 
581 1 18.5078 7.39764 20.1338 
583 1 17.0841 4.93176 21.1405 
582 1 22.7788 4.93176 20.1338 
584 1 21.3551 7.39764 21.1405 
580 1 24.2025 7.39764 19.1271 
821 1 27.0498 7.39764 20.1338 
823 1 25.6262 4.93176 21.1405 
819 1 28.4735 4.93176 19.1271 
824 1 29.8972 7.39764 21.1405 
820 1 32.7446 7.39764 19.1271 
822 1 31.3209 4.93176 20.1338 
159 1 2.84735 9.86352 19.1271 
163 1 0 9.86352 21.1405 
162 1 5.69471 9.86352 20.1338 
403 1 8.54206 9.86352 21.1405 
399 1 11.3894 9.86352 19.1271 
402 1 14.2368 9.86352 20.1338 
639 1 19.9315 9.86352 19.1271 
643 1 17.0841 9.86352 21.1405 
642 1 22.7788 9.86352 20.1338 
883 1 25.6262 9.86352 21.1405 
879 1 28.4735 9.86352 19.1271 
882 1 31.3209 9.86352 20.1338 
161 1 1.42368 12.3294 20.1338 
219 1 2.84735 14.7953 19.1271 
223 1 0 14.7953 21.1405 
164 1 4.27103 12.3294 21.1405 
222 1 5.69471 14.7953 20.1338 
160 1 7.11838 12.3294 19.1271 
401 1 9.96573 12.3294 20.1338 
463 1 8.54206 14.7953 21.1405 
404 1 12.8131 12.3294 21.1405 
459 1 11.3894 14.7953 19.1271 
400 1 15.6604 12.3294 19.1271 
462 1 14.2368 14.7953 20.1338 
641 1 18.5078 12.3294 20.1338 
699 1 19.9315 14.7953 19.1271 
703 1 17.0841 14.7953 21.1405 
644 1 21.3551 12.3294 21.1405 
702 1 22.7788 14.7953 20.1338 
640 1 24.2025 12.3294 19.1271 
881 1 27.0498 12.3294 20.1338 
943 1 25.6262 14.7953 21.1405 
884 1 29.8972 12.3294 21.1405 
939 1 28.4735 14.7953 19.1271 
880 1 32.7446 12.3294 19.1271 
942 1 31.3209 14.7953 20.1338 
221 1 1.42368 17.2612 20.1338 
224 1 4.27103 17.2612 21.1405 
220 1 7.11838 17.2612 19.1271 
461 1 9.96573 17.2612 20.1338 
464 1 12.8131 17.2612 21.1405 
460 1 15.6604 17.2612 19.1271 
701 1 18.5078 17.2612 20.1338 
704 1 21.3551 17.2612 21.1405 
700 1 24.2025 17.2612 19.1271 
941 1 27.0498 17.2612 20.1338 
944 1 29.8972 17.2612 21.1405 
940 1 32.7446 17.2612 19.1271 
45 1 2.84735 0 22.1472 
47 1 1.42368 2.46588 23.1539 
49 1 0 0 24.1606 
51 1 2.84735 0 25.1673 
48 1 5.69471 0 23.1539 
50 1 4.27103 2.46588 24.1606 
46 1 7.11838 2.46588 22.1472 
52 1 7.11838 2.46588 25.1673 
287 1 9.96573 2.46588 23.1539 
289 1 8.54206 0 24.1606 
285 1 11.3894 0 22.1472 
290 1 12.8131 2.46588 24.1606 
291 1 11.3894 0 25.1673 
286 1 15.6604 2.46588 22.1472 
288 1 14.2368 0 23.1539 
292 1 15.6604 2.46588 25.1673 
525 1 19.9315 0 22.1472 
527 1 18.5078 2.46588 23.1539 
529 1 17.0841 0 24.1606 
531 1 19.9315 0 25.1673 
528 1 22.7788 0 23.1539 
530 1 21.3551 2.46588 24.1606 
526 1 24.2025 2.46588 22.1472 
532 1 24.2025 2.46588 25.1673 
767 1 27.0498 2.46588 23.1539 
769 1 25.6262 0 24.1606 
765 1 28.4735 0 22.1472 
770 1 29.8972 2.46588 24.1606 
771 1 28.4735 0 25.1673 
766 1 32.7446 2.46588 22.1472 
768 1 31.3209 0 23.1539 
772 1 32.7446 2.46588 25.1673 
105 1 2.84735 4.93176 22.1472 
107 1 1.42368 7.39764 23.1539 
109 1 0 4.93176 24.1606 
111 1 2.84735 4.93176 25.1673 
108 1 5.69471 4.93176 23.1539 
110 1 4.27103 7.39764 24.1606 
106 1 7.11838 7.39764 22.1472 
112 1 7.11838 7.39764 25.1673 
347 1 9.96573 7.39764 23.1539 
349 1 8.54206 4.93176 24.1606 
345 1 11.3894 4.93176 22.1472 
350 1 12.8131 7.39764 24.1606 
351 1 11.3894 4.93176 25.1673 
346 1 15.6604 7.39764 22.1472 
348 1 14.2368 4.93176 23.1539 
352 1 15.6604 7.39764 25.1673 
585 1 19.9315 4.93176 22.1472 
587 1 18.5078 7.39764 23.1539 
589 1 17.0841 4.93176 24.1606 
591 1 19.9315 4.93176 25.1673 
588 1 22.7788 4.93176 23.1539 
590 1 21.3551 7.39764 24.1606 
586 1 24.2025 7.39764 22.1472 
592 1 24.2025 7.39764 25.1673 
827 1 27.0498 7.39764 23.1539 
829 1 25.6262 4.93176 24.1606 
825 1 28.4735 4.93176 22.1472 
830 1 29.8972 7.39764 24.1606 
831 1 28.4735 4.93176 25.1673 
826 1 32.7446 7.39764 22.1472 
828 1 31.3209 4.93176 23.1539 
832 1 32.7446 7.39764 25.1673 
165 1 2.84735 9.86352 22.1472 
169 1 0 9.86352 24.1606 
171 1 2.84735 9.86352 25.1673 
168 1 5.69471 9.86352 23.1539 
409 1 8.54206 9.86352 24.1606 
405 1 11.3894 9.86352 22.1472 
411 1 11.3894 9.86352 25.1673 
408 1 14.2368 9.86352 23.1539 
645 1 19.9315 9.86352 22.1472 
649 1 17.0841 9.86352 24.1606 
651 1 19.9315 9.86352 25.1673 
648 1 22.7788 9.86352 23.1539 
889 1 25.6262 9.86352 24.1606 
885 1 28.4735 9.86352 22.1472 
891 1 28.4735 9.86352 25.1673 
888 1 31.3209 9.86352 23.1539 
167 1 1.42368 12.3294 23.1539 
225 1 2.84735 14.7953 22.1472 
229 1 0 14.7953 24.1606 
231 1 2.84735 14.7953 25.1673 
170 1 4.27103 12.3294 24.1606 
228 1 5.69471 14.7953 23.1539 
166 1 7.11838 12.3294 22.1472 
172 1 7.11838 12.3294 25.1673 
407 1 9.96573 12.3294 23.1539 
469 1 8.54206 14.7953 24.1606 
410 1 12.8131 12.3294 24.1606 
465 1 11.3894 14.7953 22.1472 
471 1 11.3894 14.7953 25.1673 
406 1 15.6604 12.3294 22.1472 
412 1 15.6604 12.3294 25.1673 
468 1 14.2368 14.7953 23.1539 
647 1 18.5078 12.3294 23.1539 
705 1 19.9315 14.7953 22.1472 
709 1 17.0841 14.7953 24.1606 
711 1 19.9315 14.7953 25.1673 
650 1 21.3551 12.3294 24.1606 
708 1 22.7788 14.7953 23.1539 
646 1 24.2025 12.3294 22.1472 
652 1 24.2025 12.3294 25.1673 
887 1 27.0498 12.3294 23.1539 
949 1 25.6262 14.7953 24.1606 
890 1 29.8972 12.3294 24.1606 
945 1 28.4735 14.7953 22.1472 
951 1 28.4735 14.7953 25.1673 
886 1 32.7446 12.3294 22.1472 
892 1 32.7446 12.3294 25.1673 
948 1 31.3209 14.7953 23.1539 
227 1 1.42368 17.2612 23.1539 
230 1 4.27103 17.2612 24.1606 
226 1 7.11838 17.2612 22.1472 
232 1 7.11838 17.2612 25.1673 
467 1 9.96573 17.2612 23.1539 
470 1 12.8131 17.2612 24.1606 
466 1 15.6604 17.2612 22.1472 
472 1 15.6604 17.2612 25.1673 
707 1 18.5078 17.2612 23.1539 
710 1 21.3551 17.2612 24.1606 
706 1 24.2025 17.2612 22.1472 
712 1 24.2025 17.2612 25.1673 
947 1 27.0498 17.2612 23.1539 
950 1 29.8972 17.2612 24.1606 
946 1 32.7446 17.2612 22.1472 
952 1 32.7446 17.2612 25.1673 
53 1 1.42368 2.46588 26.174 
55 1 0 0 27.1807 
57 1 2.84735 0 28.1874 
59 1 1.42368 2.46588 29.194 
54 1 5.69471 0 26.174 
56 1 4.27103 2.46588 27.1807 
60 1 5.69471 0 29.194 
58 1 7.11838 2.46588 28.1874 
293 1 9.96573 2.46588 26.174 
295 1 8.54206 0 27.1807 
299 1 9.96573 2.46588 29.194 
296 1 12.8131 2.46588 27.1807 
297 1 11.3894 0 28.1874 
294 1 14.2368 0 26.174 
298 1 15.6604 2.46588 28.1874 
300 1 14.2368 0 29.194 
533 1 18.5078 2.46588 26.174 
535 1 17.0841 0 27.1807 
537 1 19.9315 0 28.1874 
539 1 18.5078 2.46588 29.194 
534 1 22.7788 0 26.174 
536 1 21.3551 2.46588 27.1807 
540 1 22.7788 0 29.194 
538 1 24.2025 2.46588 28.1874 
773 1 27.0498 2.46588 26.174 
775 1 25.6262 0 27.1807 
779 1 27.0498 2.46588 29.194 
776 1 29.8972 2.46588 27.1807 
777 1 28.4735 0 28.1874 
774 1 31.3209 0 26.174 
778 1 32.7446 2.46588 28.1874 
780 1 31.3209 0 29.194 
113 1 1.42368 7.39764 26.174 
115 1 0 4.93176 27.1807 
117 1 2.84735 4.93176 28.1874 
119 1 1.42368 7.39764 29.194 
114 1 5.69471 4.93176 26.174 
116 1 4.27103 7.39764 27.1807 
120 1 5.69471 4.93176 29.194 
118 1 7.11838 7.39764 28.1874 
353 1 9.96573 7.39764 26.174 
355 1 8.54206 4.93176 27.1807 
359 1 9.96573 7.39764 29.194 
356 1 12.8131 7.39764 27.1807 
357 1 11.3894 4.93176 28.1874 
354 1 14.2368 4.93176 26.174 
358 1 15.6604 7.39764 28.1874 
360 1 14.2368 4.93176 29.194 
593 1 18.5078 7.39764 26.174 
595 1 17.0841 4.93176 27.1807 
597 1 19.9315 4.93176 28.1874 
599 1 18.5078 7.39764 29.194 
594 1 22.7788 4.93176 26.174 
596 1 21.3551 7.39764 27.1807 
600 1 22.7788 4.93176 29.194 
598 1 24.2025 7.39764 28.1874 
833 1 27.0498 7.39764 26.174 
835 1 25.6262 4.93176 27.1807 
839 1 27.0498 7.39764 29.194 
836 1 29.8972 7.39764 27.1807 
837 1 28.4735 4.93176 28.1874 
834 1 31.3209 4.93176 26.174 
838 1 32.7446 7.39764 28.1874 
840 1 31.3209 4.93176 29.194 
175 1 0 9.86352 27.1807 
177 1 2.84735 9.86352 28.1874 
174 1 5.69471 9.86352 26.174 
180 1 5.69471 9.86352 29.194 
415 1 8.54206 9.86352 27.1807 
417 1 11.3894 9.86352 28.1874 
414 1 14.2368 9.86352 26.174 
420 1 14.2368 9.86352 29.194 
655 1 17.0841 9.86352 27.1807 
657 1 19.9315 9.86352 28.1874 
654 1 22.7788 9.86352 26.174 
660 1 22.7788 9.86352 29.194 
895 1 25.6262 9.86352 27.1807 
897 1 28.4735 9.86352 28.1874 
894 1 31.3209 9.86352 26.174 
900 1 31.3209 9.86352 29.194 
173 1 1.42368 12.3294 26.174 
179 1 1.42368 12.3294 29.194 
235 1 0 14.7953 27.1807 
237 1 2.84735 14.7953 28.1874 
176 1 4.27103 12.3294 27.1807 
234 1 5.69471 14.7953 26.174 
240 1 5.69471 14.7953 29.194 
178 1 7.11838 12.3294 28.1874 
413 1 9.96573 12.3294 26.174 
419 1 9.96573 12.3294 29.194 
475 1 8.54206 14.7953 27.1807 
416 1 12.8131 12.3294 27.1807 
477 1 11.3894 14.7953 28.1874 
418 1 15.6604 12.3294 28.1874 
474 1 14.2368 14.7953 26.174 
480 1 14.2368 14.7953 29.194 
653 1 18.5078 12.3294 26.174 
659 1 18.5078 12.3294 29.194 
715 1 17.0841 14.7953 27.1807 
717 1 19.9315 14.7953 28.1874 
656 1 21.3551 12.3294 27.1807 
714 1 22.7788 14.7953 26.174 
720 1 22.7788 14.7953 29.194 
658 1 24.2025 12.3294 28.1874 
893 1 27.0498 12.3294 26.174 
899 1 27.0498 12.3294 29.194 
955 1 25.6262 14.7953 27.1807 
896 1 29.8972 12.3294 27.1807 
957 1 28.4735 14.7953 28.1874 
898 1 32.7446 12.3294 28.1874 
954 1 31.3209 14.7953 26.174 
960 1 31.3209 14.7953 29.194 
233 1 1.42368 17.2612 26.174 
239 1 1.42368 17.2612 29.194 
236 1 4.27103 17.2612 27.1807 
238 1 7.11838 17.2612 28.1874 
473 1 9.96573 17.2612 26.174 
479 1 9.96573 17.2612 29.194 
476 1 12.8131 17.2612 27.1807 
478 1 15.6604 17.2612 28.1874 
713 1 18.5078 17.2612 26.174 
719 1 18.5078 17.2612 29.194 
716 1 21.3551 17.2612 27.1807 
718 1 24.2025 17.2612 28.1874 
953 1 27.0498 17.2612 26.174 
959 1 27.0498 17.2612 29.194 
956 1 29.8972 17.2612 27.1807 
958 1 32.7446 17.2612 28.1874 
ITEM: TIMESTEP
1
ITEM: NUMBER OF ATOMS
960
ITEM: BOX BOUNDS pp pp ss
0 34.1682
0 19.727
-0.00302007 29.1971
ITEM: ATOMS id type x y z 
1 1 -2.17805e-16 -4.90239e-16 -0.0677402 
3 1 2.84735 -7.17286e-16 0.939693 
5 1 1.42368 2.46588 2.02023 
7 1 1.00192e-16 -9.6549e-16 3.12007 
2 1 4.27103 2.46588 -0.0677402 
6 1 5.69471 -1.14128e-15 2.02023 
8 1 4.27103 2.46588 3.12007 
4 1 7.11838 2.46588 0.939693 
241 1 8.54206 -4.4096e-16 -0.0677402 
245 1 9.96573 2.46588 2.02023 
247 1 8.54206 -1.02982e-15 3.12007 
242 1 12.8131 2.46588 -0.0677402 
243 1 11.3894 -8.06093e-16 0.939693 
248 1 12.8131 2.46588 3.12007 
244 1 15.6604 2.46588 0.939693 
246 1 14.2368 -9.92816e-16 2.02023 
481 1 17.0841 -4.1022e-16 -0.0677402 
483 1 19.9315 -8.72585e-16 0.939693 
485 1 18.5078 2.46588 2.02023 
487 1 17.0841 -1.10206e-15 3.12007 
482 1 21.3551 2.46588 -0.0677402 
486 1 22.7788 -1.19593e-15 2.02023 
488 1 21.3551 2.46588 3.12007 
484 1 24.2025 2.46588 0.939693 
721 1 25.6262 -3.14012e-16 -0.0677402 
725 1 27.0498 2.46588 2.02023 
727 1 25.6262 -9.88261e-16 3.12007 
722 1 29.8972 2.46588 -0.0677402 
723 1 28.4735 -9.13117e-16 0.939693 
728 1 29.8972 2.46588 3.12007 
724 1 32.7446 2.46588 0.939693 
726 1 31.3209 -9.93271e-16 2.02023 
61 1 -9.78014e-17 4.93176 -0.0677402 
63 1 2.84735 4.93176 0.939693 
65 1 1.42368 7.39764 2.02023 
67 1 -1.80119e-16 4.93176 3.12007 
62 1 4.27103 7.39764 -0.0677402 
66 1 5.69471 4.93176 2.02023 
68 1 4.27103 7.39764 3.12007 