 
 720 atoms 
 
 1 atom types
 0.00000000000000000000 96.65000649760033013536 xlo xhi
 0.00000000000000000000 8.85078037695522112926 ylo yhi
 0.00000000000000000000 12.51689364667572768042 zlo zhi
 0.00000000000000000000 0.00000000000000000000 0.00000000000000000000 xy xz yz
 
 Atoms 
 
	1	1	0.00000000000000000000	0.00000000000000000000	0.00000000000000000000
	2	1	1.27750010829333882079	2.21269509423880528232	0.00000000000000000000
	3	1	0.00000000000000000000	1.47513006282587011420	2.08614894111262128007
	4	1	1.27750010829333882079	3.68782515706467561856	2.08614894111262128007
	5	1	0.00000000000000000000	2.95026012565174022839	4.17229788222524256014
	6	1	1.27750010829333882079	0.73756503141293505710	4.17229788222524256014
	7	1	0.00000000000000000000	0.00000000000000000000	6.25844682333786384021
	8	1	1.27750010829333882079	2.21269509423880528232	6.25844682333786384021
	9	1	0.00000000000000000000	1.47513006282587011420	8.34459576445048512028
	10	1	1.27750010829333882079	3.68782515706467561856	8.34459576445048512028
	11	1	0.00000000000000000000	2.95026012565174022839	10.43074470556310728853
	12	1	1.27750010829333882079	0.73756503141293505710	10.43074470556310728853
	13	1	0.00000000000000000000	4.42539018847761056463	0.00000000000000000000
	14	1	1.27750010829333882079	6.63808528271641584695	0.00000000000000000000
	15	1	0.00000000000000000000	5.90052025130348045678	2.08614894111262128007
	16	1	1.27750010829333882079	8.11321534554228662728	2.08614894111262128007
	17	1	0.00000000000000000000	7.37565031412935034894	4.17229788222524256014
	18	1	1.27750010829333882079	5.16295521989054595480	4.17229788222524256014
	19	1	0.00000000000000000000	4.42539018847761056463	6.25844682333786384021
	20	1	1.27750010829333882079	6.63808528271641584695	6.25844682333786384021
	21	1	0.00000000000000000000	5.90052025130348045678	8.34459576445048512028
	22	1	1.27750010829333882079	8.11321534554228662728	8.34459576445048512028
	23	1	0.00000000000000000000	7.37565031412935034894	10.43074470556310728853
	24	1	1.27750010829333882079	5.16295521989054595480	10.43074470556310728853
	25	1	2.55500021658667764157	0.00000000000000000000	0.00000000000000000000
	26	1	3.83250032488001668440	2.21269509423880528232	0.00000000000000000000
	27	1	2.55500021658667764157	1.47513006282587011420	2.08614894111262128007
	28	1	3.83250032488001668440	3.68782515706467561856	2.08614894111262128007
	29	1	2.55500021658667764157	2.95026012565174022839	4.17229788222524256014
	30	1	3.83250032488001668440	0.73756503141293505710	4.17229788222524256014
	31	1	2.55500021658667764157	0.00000000000000000000	6.25844682333786384021
	32	1	3.83250032488001668440	2.21269509423880528232	6.25844682333786384021
	33	1	2.55500021658667764157	1.47513006282587011420	8.34459576445048512028
	34	1	3.83250032488001668440	3.68782515706467561856	8.34459576445048512028
	35	1	2.55500021658667764157	2.95026012565174022839	10.43074470556310728853
	36	1	3.83250032488001668440	0.73756503141293505710	10.43074470556310728853
	37	1	2.55500021658667764157	4.42539018847761056463	0.00000000000000000000
	38	1	3.83250032488001668440	6.63808528271641584695	0.00000000000000000000
	39	1	2.55500021658667764157	5.90052025130348045678	2.08614894111262128007
	40	1	3.83250032488001668440	8.11321534554228662728	2.08614894111262128007
	41	1	2.55500021658667764157	7.37565031412935034894	4.17229788222524256014
	42	1	3.83250032488001668440	5.16295521989054595480	4.17229788222524256014
	43	1	2.55500021658667764157	4.42539018847761056463	6.25844682333786384021
	44	1	3.83250032488001668440	6.63808528271641584695	6.25844682333786384021
	45	1	2.55500021658667764157	5.90052025130348045678	8.34459576445048512028
	46	1	3.83250032488001668440	8.11321534554228662728	8.34459576445048512028
	47	1	2.55500021658667764157	7.37565031412935034894	10.43074470556310728853
	48	1	3.83250032488001668440	5.16295521989054595480	10.43074470556310728853
	49	1	5.11000043317335528315	0.00000000000000000000	0.00000000000000000000
	50	1	6.38750054146669388189	2.21269509423880528232	0.00000000000000000000
	51	1	5.11000043317335528315	1.47513006282587011420	2.08614894111262128007
	52	1	6.38750054146669388189	3.68782515706467561856	2.08614894111262128007
	53	1	5.11000043317335528315	2.95026012565174022839	4.17229788222524256014
	54	1	6.38750054146669388189	0.73756503141293505710	4.17229788222524256014
	55	1	5.11000043317335528315	0.00000000000000000000	6.25844682333786384021
	56	1	6.38750054146669388189	2.21269509423880528232	6.25844682333786384021
	57	1	5.11000043317335528315	1.47513006282587011420	8.34459576445048512028
	58	1	6.38750054146669388189	3.68782515706467561856	8.34459576445048512028
	59	1	5.11000043317335528315	2.95026012565174022839	10.43074470556310728853
	60	1	6.38750054146669388189	0.73756503141293505710	10.43074470556310728853
	61	1	5.11000043317335528315	4.42539018847761056463	0.00000000000000000000
	62	1	6.38750054146669388189	6.63808528271641584695	0.00000000000000000000
	63	1	5.11000043317335528315	5.90052025130348045678	2.08614894111262128007
	64	1	6.38750054146669388189	8.11321534554228662728	2.08614894111262128007
	65	1	5.11000043317335528315	7.37565031412935034894	4.17229788222524256014
	66	1	6.38750054146669388189	5.16295521989054595480	4.17229788222524256014
	67	1	5.11000043317335528315	4.42539018847761056463	6.25844682333786384021
	68	1	6.38750054146669388189	6.63808528271641584695	6.25844682333786384021
	69	1	5.11000043317335528315	5.90052025130348045678	8.34459576445048512028
	70	1	6.38750054146669388189	8.11321534554228662728	8.34459576445048512028
	71	1	5.11000043317335528315	7.37565031412935034894	10.43074470556310728853
	72	1	6.38750054146669388189	5.16295521989054595480	10.43074470556310728853
	73	1	7.66500064976003336881	0.00000000000000000000	0.00000000000000000000
	74	1	8.94250075805337196755	2.21269509423880528232	0.00000000000000000000
	75	1	7.66500064976003336881	1.47513006282587011420	2.08614894111262128007
	76	1	8.94250075805337196755	3.68782515706467561856	2.08614894111262128007
	77	1	7.66500064976003336881	2.95026012565174022839	4.17229788222524256014
	78	1	8.94250075805337196755	0.73756503141293505710	4.17229788222524256014
	79	1	7.66500064976003336881	0.00000000000000000000	6.25844682333786384021
	80	1	8.94250075805337196755	2.21269509423880528232	6.25844682333786384021
	81	1	7.66500064976003336881	1.47513006282587011420	8.34459576445048512028
	82	1	8.94250075805337196755	3.68782515706467561856	8.34459576445048512028
	83	1	7.66500064976003336881	2.95026012565174022839	10.43074470556310728853
	84	1	8.94250075805337196755	0.73756503141293505710	10.43074470556310728853
	85	1	7.66500064976003336881	4.42539018847761056463	0.00000000000000000000
	86	1	8.94250075805337196755	6.63808528271641584695	0.00000000000000000000
	87	1	7.66500064976003336881	5.90052025130348045678	2.08614894111262128007
	88	1	8.94250075805337196755	8.11321534554228662728	2.08614894111262128007
	89	1	7.66500064976003336881	7.37565031412935034894	4.17229788222524256014
	90	1	8.94250075805337196755	5.16295521989054595480	4.17229788222524256014
	91	1	7.66500064976003336881	4.42539018847761056463	6.25844682333786384021
	92	1	8.94250075805337196755	6.63808528271641584695	6.25844682333786384021
	93	1	7.66500064976003336881	5.90052025130348045678	8.34459576445048512028
	94	1	8.94250075805337196755	8.11321534554228662728	8.34459576445048512028
	95	1	7.66500064976003336881	7.37565031412935034894	10.43074470556310728853
	96	1	8.94250075805337196755	5.16295521989054595480	10.43074470556310728853
	97	1	10.22000086634671056629	0.00000000000000000000	0.00000000000000000000
	98	1	11.49750097464004916503	2.21269509423880528232	0.00000000000000000000
	99	1	10.22000086634671056629	1.47513006282587011420	2.08614894111262128007
	100	1	11.49750097464004916503	3.68782515706467561856	2.08614894111262128007
	101	1	10.22000086634671056629	2.95026012565174022839	4.17229788222524256014
	102	1	11.49750097464004916503	0.73756503141293505710	4.17229788222524256014
	103	1	10.22000086634671056629	0.00000000000000000000	6.25844682333786384021
	104	1	11.49750097464004916503	2.21269509423880528232	6.25844682333786384021
	105	1	10.22000086634671056629	1.47513006282587011420	8.34459576445048512028
	106	1	11.49750097464004916503	3.68782515706467561856	8.34459576445048512028
	107	1	10.22000086634671056629	2.95026012565174022839	10.43074470556310728853
	108	1	11.49750097464004916503	0.73756503141293505710	10.43074470556310728853
	109	1	10.22000086634671056629	4.42539018847761056463	0.00000000000000000000
	110	1	11.49750097464004916503	6.63808528271641584695	0.00000000000000000000
	111	1	10.22000086634671056629	5.90052025130348045678	2.08614894111262128007
	112	1	11.49750097464004916503	8.11321534554228662728	2.08614894111262128007
	113	1	10.22000086634671056629	7.37565031412935034894	4.17229788222524256014
	114	1	11.49750097464004916503	5.16295521989054595480	4.17229788222524256014
	115	1	10.22000086634671056629	4.42539018847761056463	6.25844682333786384021
	116	1	11.49750097464004916503	6.63808528271641584695	6.25844682333786384021
	117	1	10.22000086634671056629	5.90052025130348045678	8.34459576445048512028
	118	1	11.49750097464004916503	8.11321534554228662728	8.34459576445048512028
	119	1	10.22000086634671056629	7.37565031412935034894	10.43074470556310728853
	120	1	11.49750097464004916503	5.16295521989054595480	10.43074470556310728853
	121	1	12.77500108293338776377	0.00000000000000000000	0.00000000000000000000
	122	1	14.05250119122672636252	2.21269509423880528232	0.00000000000000000000
	123	1	12.77500108293338776377	1.47513006282587011420	2.08614894111262128007
	124	1	14.05250119122672636252	3.68782515706467561856	2.08614894111262128007
	125	1	12.77500108293338776377	2.95026012565174022839	4.17229788222524256014
	126	1	14.05250119122672636252	0.73756503141293505710	4.17229788222524256014
	127	1	12.77500108293338776377	0.00000000000000000000	6.25844682333786384021
	128	1	14.05250119122672636252	2.21269509423880528232	6.25844682333786384021
	129	1	12.77500108293338776377	1.47513006282587011420	8.34459576445048512028
	130	1	14.05250119122672636252	3.68782515706467561856	8.34459576445048512028
	131	1	12.77500108293338776377	2.95026012565174022839	10.43074470556310728853
	132	1	14.05250119122672636252	0.73756503141293505710	10.43074470556310728853
	133	1	12.77500108293338776377	4.42539018847761056463	0.00000000000000000000
	134	1	14.05250119122672636252	6.63808528271641584695	0.00000000000000000000
	135	1	12.77500108293338776377	5.90052025130348045678	2.08614894111262128007
	136	1	14.05250119122672636252	8.11321534554228662728	2.08614894111262128007
	137	1	12.77500108293338776377	7.37565031412935034894	4.17229788222524256014
	138	1	14.05250119122672636252	5.16295521989054595480	4.17229788222524256014
	139	1	12.77500108293338776377	4.42539018847761056463	6.25844682333786384021
	140	1	14.05250119122672636252	6.63808528271641584695	6.25844682333786384021
	141	1	12.77500108293338776377	5.90052025130348045678	8.34459576445048512028
	142	1	14.05250119122672636252	8.11321534554228662728	8.34459576445048512028
	143	1	12.77500108293338776377	7.37565031412935034894	10.43074470556310728853
	144	1	14.05250119122672636252	5.16295521989054595480	10.43074470556310728853
	145	1	15.33000129952006673761	0.00000000000000000000	0.00000000000000000000
	146	1	16.60750140781340533636	2.21269509423880528232	0.00000000000000000000
	147	1	15.33000129952006673761	1.47513006282587011420	2.08614894111262128007
	148	1	16.60750140781340533636	3.68782515706467561856	2.08614894111262128007
	149	1	15.33000129952006673761	2.95026012565174022839	4.17229788222524256014
	150	1	16.60750140781340533636	0.73756503141293505710	4.17229788222524256014
	151	1	15.33000129952006673761	0.00000000000000000000	6.25844682333786384021
	152	1	16.60750140781340533636	2.21269509423880528232	6.25844682333786384021
	153	1	15.33000129952006673761	1.47513006282587011420	8.34459576445048512028
	154	1	16.60750140781340533636	3.68782515706467561856	8.34459576445048512028
	155	1	15.33000129952006673761	2.95026012565174022839	10.43074470556310728853
	156	1	16.60750140781340533636	0.73756503141293505710	10.43074470556310728853
	157	1	15.33000129952006673761	4.42539018847761056463	0.00000000000000000000
	158	1	16.60750140781340533636	6.63808528271641584695	0.00000000000000000000
	159	1	15.33000129952006673761	5.90052025130348045678	2.08614894111262128007
	160	1	16.60750140781340533636	8.11321534554228662728	2.08614894111262128007
	161	1	15.33000129952006673761	7.37565031412935034894	4.17229788222524256014
	162	1	16.60750140781340533636	5.16295521989054595480	4.17229788222524256014
	163	1	15.33000129952006673761	4.42539018847761056463	6.25844682333786384021
	164	1	16.60750140781340533636	6.63808528271641584695	6.25844682333786384021
	165	1	15.33000129952006673761	5.90052025130348045678	8.34459576445048512028
	166	1	16.60750140781340533636	8.11321534554228662728	8.34459576445048512028
	167	1	15.33000129952006673761	7.37565031412935034894	10.43074470556310728853
	168	1	16.60750140781340533636	5.16295521989054595480	10.43074470556310728853
	169	1	17.88500151610674393510	0.00000000000000000000	0.00000000000000000000
	170	1	19.16250162440008253384	2.21269509423880528232	0.00000000000000000000
	171	1	17.88500151610674393510	1.47513006282587011420	2.08614894111262128007
	172	1	19.16250162440008253384	3.68782515706467561856	2.08614894111262128007
	173	1	17.88500151610674393510	2.95026012565174022839	4.17229788222524256014
	174	1	19.16250162440008253384	0.73756503141293505710	4.17229788222524256014
	175	1	17.88500151610674393510	0.00000000000000000000	6.25844682333786384021
	176	1	19.16250162440008253384	2.21269509423880528232	6.25844682333786384021
	177	1	17.88500151610674393510	1.47513006282587011420	8.34459576445048512028
	178	1	19.16250162440008253384	3.68782515706467561856	8.34459576445048512028
	179	1	17.88500151610674393510	2.95026012565174022839	10.43074470556310728853
	180	1	19.16250162440008253384	0.73756503141293505710	10.43074470556310728853
	181	1	17.88500151610674393510	4.42539018847761056463	0.00000000000000000000
	182	1	19.16250162440008253384	6.63808528271641584695	0.00000000000000000000
	183	1	17.88500151610674393510	5.90052025130348045678	2.08614894111262128007
	184	1	19.16250162440008253384	8.11321534554228662728	2.08614894111262128007
	185	1	17.88500151610674393510	7.37565031412935034894	4.17229788222524256014
	186	1	19.16250162440008253384	5.16295521989054595480	4.17229788222524256014
	187	1	17.88500151610674393510	4.42539018847761056463	6.25844682333786384021
	188	1	19.16250162440008253384	6.63808528271641584695	6.25844682333786384021
	189	1	17.88500151610674393510	5.90052025130348045678	8.34459576445048512028
	190	1	19.16250162440008253384	8.11321534554228662728	8.34459576445048512028
	191	1	17.88500151610674393510	7.37565031412935034894	10.43074470556310728853
	192	1	19.16250162440008253384	5.16295521989054595480	10.43074470556310728853
	193	1	20.44000173269342113258	0.00000000000000000000	0.00000000000000000000
	194	1	21.71750184098675973132	2.21269509423880528232	0.00000000000000000000
	195	1	20.44000173269342113258	1.47513006282587011420	2.08614894111262128007
	196	1	21.71750184098675973132	3.68782515706467561856	2.08614894111262128007
	197	1	20.44000173269342113258	2.95026012565174022839	4.17229788222524256014
	198	1	21.71750184098675973132	0.73756503141293505710	4.17229788222524256014
	199	1	20.44000173269342113258	0.00000000000000000000	6.25844682333786384021
	200	1	21.71750184098675973132	2.21269509423880528232	6.25844682333786384021
	201	1	20.44000173269342113258	1.47513006282587011420	8.34459576445048512028
	202	1	21.71750184098675973132	3.68782515706467561856	8.34459576445048512028
	203	1	20.44000173269342113258	2.95026012565174022839	10.43074470556310728853
	204	1	21.71750184098675973132	0.73756503141293505710	10.43074470556310728853
	205	1	20.44000173269342113258	4.42539018847761056463	0.00000000000000000000
	206	1	21.71750184098675973132	6.63808528271641584695	0.00000000000000000000
	207	1	20.44000173269342113258	5.90052025130348045678	2.08614894111262128007
	208	1	21.71750184098675973132	8.11321534554228662728	2.08614894111262128007
	209	1	20.44000173269342113258	7.37565031412935034894	4.17229788222524256014
	210	1	21.71750184098675973132	5.16295521989054595480	4.17229788222524256014
	211	1	20.44000173269342113258	4.42539018847761056463	6.25844682333786384021
	212	1	21.71750184098675973132	6.63808528271641584695	6.25844682333786384021
	213	1	20.44000173269342113258	5.90052025130348045678	8.34459576445048512028
	214	1	21.71750184098675973132	8.11321534554228662728	8.34459576445048512028
	215	1	20.44000173269342113258	7.37565031412935034894	10.43074470556310728853
	216	1	21.71750184098675973132	5.16295521989054595480	10.43074470556310728853
	217	1	22.99500194928009833006	0.00000000000000000000	0.00000000000000000000
	218	1	24.27250205757343692881	2.21269509423880528232	0.00000000000000000000
	219	1	22.99500194928009833006	1.47513006282587011420	2.08614894111262128007
	220	1	24.27250205757343692881	3.68782515706467561856	2.08614894111262128007
	221	1	22.99500194928009833006	2.95026012565174022839	4.17229788222524256014
	222	1	24.27250205757343692881	0.73756503141293505710	4.17229788222524256014
	223	1	22.99500194928009833006	0.00000000000000000000	6.25844682333786384021
	224	1	24.27250205757343692881	2.21269509423880528232	6.25844682333786384021
	225	1	22.99500194928009833006	1.47513006282587011420	8.34459576445048512028
	226	1	24.27250205757343692881	3.68782515706467561856	8.34459576445048512028
	227	1	22.99500194928009833006	2.95026012565174022839	10.43074470556310728853
	228	1	24.27250205757343692881	0.73756503141293505710	10.43074470556310728853
	229	1	22.99500194928009833006	4.42539018847761056463	0.00000000000000000000
	230	1	24.27250205757343692881	6.63808528271641584695	0.00000000000000000000
	231	1	22.99500194928009833006	5.90052025130348045678	2.08614894111262128007
	232	1	24.27250205757343692881	8.11321534554228662728	2.08614894111262128007
	233	1	22.99500194928009833006	7.37565031412935034894	4.17229788222524256014
	234	1	24.27250205757343692881	5.16295521989054595480	4.17229788222524256014
	235	1	22.99500194928009833006	4.42539018847761056463	6.25844682333786384021
	236	1	24.27250205757343692881	6.63808528271641584695	6.25844682333786384021
	237	1	22.99500194928009833006	5.90052025130348045678	8.34459576445048512028
	238	1	24.27250205757343692881	8.11321534554228662728	8.34459576445048512028
	239	1	22.99500194928009833006	7.37565031412935034894	10.43074470556310728853
	240	1	24.27250205757343692881	5.16295521989054595480	10.43074470556310728853
	241	1	25.55000216586677552755	0.00000000000000000000	0.00000000000000000000
	242	1	26.82750227416011412629	2.21269509423880528232	0.00000000000000000000
	243	1	25.55000216586677552755	1.47513006282587011420	2.08614894111262128007
	244	1	26.82750227416011412629	3.68782515706467561856	2.08614894111262128007
	245	1	25.55000216586677552755	2.95026012565174022839	4.17229788222524256014
	246	1	26.82750227416011412629	0.73756503141293505710	4.17229788222524256014
	247	1	25.55000216586677552755	0.00000000000000000000	6.25844682333786384021
	248	1	26.82750227416011412629	2.21269509423880528232	6.25844682333786384021
	249	1	25.55000216586677552755	1.47513006282587011420	8.34459576445048512028
	250	1	26.82750227416011412629	3.68782515706467561856	8.34459576445048512028
	251	1	25.55000216586677552755	2.95026012565174022839	10.43074470556310728853
	252	1	26.82750227416011412629	0.73756503141293505710	10.43074470556310728853
	253	1	25.55000216586677552755	4.42539018847761056463	0.00000000000000000000
	254	1	26.82750227416011412629	6.63808528271641584695	0.00000000000000000000
	255	1	25.55000216586677552755	5.90052025130348045678	2.08614894111262128007
	256	1	26.82750227416011412629	8.11321534554228662728	2.08614894111262128007
	257	1	25.55000216586677552755	7.37565031412935034894	4.17229788222524256014
	258	1	26.82750227416011412629	5.16295521989054595480	4.17229788222524256014
	259	1	25.55000216586677552755	4.42539018847761056463	6.25844682333786384021
	260	1	26.82750227416011412629	6.63808528271641584695	6.25844682333786384021
	261	1	25.55000216586677552755	5.90052025130348045678	8.34459576445048512028
	262	1	26.82750227416011412629	8.11321534554228662728	8.34459576445048512028
	263	1	25.55000216586677552755	7.37565031412935034894	10.43074470556310728853
	264	1	26.82750227416011412629	5.16295521989054595480	10.43074470556310728853
	265	1	28.10500238245345272503	0.00000000000000000000	0.00000000000000000000
	266	1	29.38250249074679132377	2.21269509423880528232	0.00000000000000000000
	267	1	28.10500238245345272503	1.47513006282587011420	2.08614894111262128007
	268	1	29.38250249074679132377	3.68782515706467561856	2.08614894111262128007
	269	1	28.10500238245345272503	2.95026012565174022839	4.17229788222524256014
	270	1	29.38250249074679132377	0.73756503141293505710	4.17229788222524256014
	271	1	28.10500238245345272503	0.00000000000000000000	6.25844682333786384021
	272	1	29.38250249074679132377	2.21269509423880528232	6.25844682333786384021
	273	1	28.10500238245345272503	1.47513006282587011420	8.34459576445048512028
	274	1	29.38250249074679132377	3.68782515706467561856	8.34459576445048512028
	275	1	28.10500238245345272503	2.95026012565174022839	10.43074470556310728853
	276	1	29.38250249074679132377	0.73756503141293505710	10.43074470556310728853
	277	1	28.10500238245345272503	4.42539018847761056463	0.00000000000000000000
	278	1	29.38250249074679132377	6.63808528271641584695	0.00000000000000000000
	279	1	28.10500238245345272503	5.90052025130348045678	2.08614894111262128007
	280	1	29.38250249074679132377	8.11321534554228662728	2.08614894111262128007
	281	1	28.10500238245345272503	7.37565031412935034894	4.17229788222524256014
	282	1	29.38250249074679132377	5.16295521989054595480	4.17229788222524256014
	283	1	28.10500238245345272503	4.42539018847761056463	6.25844682333786384021
	284	1	29.38250249074679132377	6.63808528271641584695	6.25844682333786384021
	285	1	28.10500238245345272503	5.90052025130348045678	8.34459576445048512028
	286	1	29.38250249074679132377	8.11321534554228662728	8.34459576445048512028
	287	1	28.10500238245345272503	7.37565031412935034894	10.43074470556310728853
	288	1	29.38250249074679132377	5.16295521989054595480	10.43074470556310728853
	289	1	30.66000259904013347523	0.00000000000000000000	0.00000000000000000000
	290	1	31.93750270733347207397	2.21269509423880528232	0.00000000000000000000
	291	1	30.66000259904013347523	1.47513006282587011420	2.08614894111262128007
	292	1	31.93750270733347207397	3.68782515706467561856	2.08614894111262128007
	293	1	30.66000259904013347523	2.95026012565174022839	4.17229788222524256014
	294	1	31.93750270733347207397	0.73756503141293505710	4.17229788222524256014
	295	1	30.66000259904013347523	0.00000000000000000000	6.25844682333786384021
	296	1	31.93750270733347207397	2.21269509423880528232	6.25844682333786384021
	297	1	30.66000259904013347523	1.47513006282587011420	8.34459576445048512028
	298	1	31.93750270733347207397	3.68782515706467561856	8.34459576445048512028
	299	1	30.66000259904013347523	2.95026012565174022839	10.43074470556310728853
	300	1	31.93750270733347207397	0.73756503141293505710	10.43074470556310728853
	301	1	30.66000259904013347523	4.42539018847761056463	0.00000000000000000000
	302	1	31.93750270733347207397	6.63808528271641584695	0.00000000000000000000
	303	1	30.66000259904013347523	5.90052025130348045678	2.08614894111262128007
	304	1	31.93750270733347207397	8.11321534554228662728	2.08614894111262128007
	305	1	30.66000259904013347523	7.37565031412935034894	4.17229788222524256014
	306	1	31.93750270733347207397	5.16295521989054595480	4.17229788222524256014
	307	1	30.66000259904013347523	4.42539018847761056463	6.25844682333786384021
	308	1	31.93750270733347207397	6.63808528271641584695	6.25844682333786384021
	309	1	30.66000259904013347523	5.90052025130348045678	8.34459576445048512028
	310	1	31.93750270733347207397	8.11321534554228662728	8.34459576445048512028
	311	1	30.66000259904013347523	7.37565031412935034894	10.43074470556310728853
	312	1	31.93750270733347207397	5.16295521989054595480	10.43074470556310728853
	313	1	33.21500281562681067271	0.00000000000000000000	0.00000000000000000000
	314	1	34.49250292392014927145	2.21269509423880528232	0.00000000000000000000
	315	1	33.21500281562681067271	1.47513006282587011420	2.08614894111262128007
	316	1	34.49250292392014927145	3.68782515706467561856	2.08614894111262128007
	317	1	33.21500281562681067271	2.95026012565174022839	4.17229788222524256014
	318	1	34.49250292392014927145	0.73756503141293505710	4.17229788222524256014
	319	1	33.21500281562681067271	0.00000000000000000000	6.25844682333786384021
	320	1	34.49250292392014927145	2.21269509423880528232	6.25844682333786384021
	321	1	33.21500281562681067271	1.47513006282587011420	8.34459576445048512028
	322	1	34.49250292392014927145	3.68782515706467561856	8.34459576445048512028
	323	1	33.21500281562681067271	2.95026012565174022839	10.43074470556310728853
	324	1	34.49250292392014927145	0.73756503141293505710	10.43074470556310728853
	325	1	33.21500281562681067271	4.42539018847761056463	0.00000000000000000000
	326	1	34.49250292392014927145	6.63808528271641584695	0.00000000000000000000
	327	1	33.21500281562681067271	5.90052025130348045678	2.08614894111262128007
	328	1	34.49250292392014927145	8.11321534554228662728	2.08614894111262128007
	329	1	33.21500281562681067271	7.37565031412935034894	4.17229788222524256014
	330	1	34.49250292392014927145	5.16295521989054595480	4.17229788222524256014
	331	1	33.21500281562681067271	4.42539018847761056463	6.25844682333786384021
	332	1	34.49250292392014927145	6.63808528271641584695	6.25844682333786384021
	333	1	33.21500281562681067271	5.90052025130348045678	8.34459576445048512028
	334	1	34.49250292392014927145	8.11321534554228662728	8.34459576445048512028
	335	1	33.21500281562681067271	7.37565031412935034894	10.43074470556310728853
	336	1	34.49250292392014927145	5.16295521989054595480	10.43074470556310728853
	337	1	35.77000303221348787019	0.00000000000000000000	0.00000000000000000000
	338	1	37.04750314050682646894	2.21269509423880528232	0.00000000000000000000
	339	1	35.77000303221348787019	1.47513006282587011420	2.08614894111262128007
	340	1	37.04750314050682646894	3.68782515706467561856	2.08614894111262128007
	341	1	35.77000303221348787019	2.95026012565174022839	4.17229788222524256014
	342	1	37.04750314050682646894	0.73756503141293505710	4.17229788222524256014
	343	1	35.77000303221348787019	0.00000000000000000000	6.25844682333786384021
	344	1	37.04750314050682646894	2.21269509423880528232	6.25844682333786384021
	345	1	35.77000303221348787019	1.47513006282587011420	8.34459576445048512028
	346	1	37.04750314050682646894	3.68782515706467561856	8.34459576445048512028
	347	1	35.77000303221348787019	2.95026012565174022839	10.43074470556310728853
	348	1	37.04750314050682646894	0.73756503141293505710	10.43074470556310728853
	349	1	35.77000303221348787019	4.42539018847761056463	0.00000000000000000000
	350	1	37.04750314050682646894	6.63808528271641584695	0.00000000000000000000
	351	1	35.77000303221348787019	5.90052025130348045678	2.08614894111262128007
	352	1	37.04750314050682646894	8.11321534554228662728	2.08614894111262128007
	353	1	35.77000303221348787019	7.37565031412935034894	4.17229788222524256014
	354	1	37.04750314050682646894	5.16295521989054595480	4.17229788222524256014
	355	1	35.77000303221348787019	4.42539018847761056463	6.25844682333786384021
	356	1	37.04750314050682646894	6.63808528271641584695	6.25844682333786384021
	357	1	35.77000303221348787019	5.90052025130348045678	8.34459576445048512028
	358	1	37.04750314050682646894	8.11321534554228662728	8.34459576445048512028
	359	1	35.77000303221348787019	7.37565031412935034894	10.43074470556310728853
	360	1	37.04750314050682646894	5.16295521989054595480	10.43074470556310728853
	361	1	38.32500324880016506768	0.00000000000000000000	0.00000000000000000000
	362	1	39.60250335709350366642	2.21269509423880528232	0.00000000000000000000
	363	1	38.32500324880016506768	1.47513006282587011420	2.08614894111262128007
	364	1	39.60250335709350366642	3.68782515706467561856	2.08614894111262128007
	365	1	38.32500324880016506768	2.95026012565174022839	4.17229788222524256014
	366	1	39.60250335709350366642	0.73756503141293505710	4.17229788222524256014
	367	1	38.32500324880016506768	0.00000000000000000000	6.25844682333786384021
	368	1	39.60250335709350366642	2.21269509423880528232	6.25844682333786384021
	369	1	38.32500324880016506768	1.47513006282587011420	8.34459576445048512028
	370	1	39.60250335709350366642	3.68782515706467561856	8.34459576445048512028
	371	1	38.32500324880016506768	2.95026012565174022839	10.43074470556310728853
	372	1	39.60250335709350366642	0.73756503141293505710	10.43074470556310728853
	373	1	38.32500324880016506768	4.42539018847761056463	0.00000000000000000000
	374	1	39.60250335709350366642	6.63808528271641584695	0.00000000000000000000
	375	1	38.32500324880016506768	5.90052025130348045678	2.08614894111262128007
	376	1	39.60250335709350366642	8.11321534554228662728	2.08614894111262128007
	377	1	38.32500324880016506768	7.37565031412935034894	4.17229788222524256014
	378	1	39.60250335709350366642	5.16295521989054595480	4.17229788222524256014
	379	1	38.32500324880016506768	4.42539018847761056463	6.25844682333786384021
	380	1	39.60250335709350366642	6.63808528271641584695	6.25844682333786384021
	381	1	38.32500324880016506768	5.90052025130348045678	8.34459576445048512028
	382	1	39.60250335709350366642	8.11321534554228662728	8.34459576445048512028
	383	1	38.32500324880016506768	7.37565031412935034894	10.43074470556310728853
	384	1	39.60250335709350366642	5.16295521989054595480	10.43074470556310728853
	385	1	40.88000346538684226516	0.00000000000000000000	0.00000000000000000000
	386	1	42.15750357368018086390	2.21269509423880528232	0.00000000000000000000
	387	1	40.88000346538684226516	1.47513006282587011420	2.08614894111262128007