ITEM: TIMESTEP
0
ITEM: NUMBER OF ATOMS
720
ITEM: BOX BOUNDS xy xz yz pp pp ss
0 96.65 0
0 8.85078 0
-0.00125169 10.432 0
ITEM: ATOMS id type x y z 
1 1 0 0 0 
2 1 1.2775 2.2127 0 
3 1 0 1.47513 2.08615 
4 1 1.2775 3.68783 2.08615 
5 1 0 2.95026 4.1723 
6 1 1.2775 0.737565 4.1723 
7 1 0 0 6.25845 
8 1 1.2775 2.2127 6.25845 
9 1 0 1.47513 8.3446 
10 1 1.2775 3.68783 8.3446 
11 1 0 2.95026 10.4307 
12 1 1.2775 0.737565 10.4307 
13 1 0 4.42539 0 
14 1 1.2775 6.63809 0 
15 1 0 5.90052 2.08615 
16 1 1.2775 8.11322 2.08615 
17 1 0 7.37565 4.1723 
18 1 1.2775 5.16296 4.1723 
19 1 0 4.42539 6.25845 
20 1 1.2775 6.63809 6.25845 
21 1 0 5.90052 8.3446 
22 1 1.2775 8.11322 8.3446 
23 1 0 7.37565 10.4307 
24 1 1.2775 5.16296 10.4307 
25 1 2.555 0 0 
26 1 3.8325 2.2127 0 
27 1 2.555 1.47513 2.08615 
28 1 3.8325 3.68783 2.08615 
29 1 2.555 2.95026 4.1723 
30 1 3.8325 0.737565 4.1723 
31 1 2.555 0 6.25845 
32 1 3.8325 2.2127 6.25845 
33 1 2.555 1.47513 8.3446 
34 1 3.8325 3.68783 8.3446 
35 1 2.555 2.95026 10.4307 
36 1 3.8325 0.737565 10.4307 
37 1 2.555 4.42539 0 
38 1 3.8325 6.63809 0 
39 1 2.555 5.90052 2.08615 
40 1 3.8325 8.11322 2.08615 
41 1 2.555 7.37565 4.1723 
42 1 3.8325 5.16296 4.1723 
43 1 2.555 4.42539 6.25845 
44 1 3.8325 6.63809 6.25845 
45 1 2.555 5.90052 8.3446 
46 1 3.8325 8.11322 8.3446 
47 1 2.555 7.37565 10.4307 
48 1 3.8325 5.16296 10.4307 
49 1 5.11 0 0 
50 1 6.3875 2.2127 0 
51 1 5.11 1.47513 2.08615 
52 1 6.3875 3.68783 2.08615 
53 1 5.11 2.95026 4.1723 
54 1 6.3875 0.737565 4.1723 
55 1 5.11 0 6.25845 
56 1 6.3875 2.2127 6.25845 
57 1 5.11 1.47513 8.3446 
58 1 6.3875 3.68783 8.3446 
59 1 5.11 2.95026 10.4307 
60 1 6.3875 0.737565 10.4307 
61 1 5.11 4.42539 0 
62 1 6.3875 6.63809 0 
63 1 5.11 5.90052 2.08615 
64 1 6.3875 8.11322 2.08615 
65 1 5.11 7.37565 4.1723 
66 1 6.3875 5.16296 4.1723 
67 1 5.11 4.42539 6.25845 
68 1 6.3875 6.63809 6.25845 
69 1 5.11 5.90052 8.3446 
70 1 6.3875 8.11322 8.3446 
71 1 5.11 7.37565 10.4307 
72 1 6.3875 5.16296 10.4307 
73 1 7.665 0 0 
74 1 8.9425 2.2127 0 
75 1 7.665 1.47513 2.08615 
76 1 8.9425 3.68783 2.08615 
77 1 7.665 2.95026 4.1723 
78 1 8.9425 0.737565 4.1723 
79 1 7.665 0 6.25845 
80 1 8.9425 2.2127 6.25845 
81 1 7.665 1.47513 8.3446 
82 1 8.9425 3.68783 8.3446 
83 1 7.665 2.95026 10.4307 
84 1 8.9425 0.737565 10.4307 
85 1 7.665 4.42539 0 
86 1 8.9425 6.63809 0 
87 1 7.665 5.90052 2.08615 
88 1 8.9425 8.11322 2.08615 
89 1 7.665 7.37565 4.1723 
90 1 8.9425 5.16296 4.1723 
91 1 7.665 4.42539 6.25845 
92 1 8.9425 6.63809 6.25845 
93 1 7.665 5.90052 8.3446 
94 1 8.9425 8.11322 8.3446 
95 1 7.665 7.37565 10.4307 
96 1 8.9425 5.16296 10.4307 
97 1 10.22 0 0 
98 1 11.4975 2.2127 0 
99 1 10.22 1.47513 2.08615 
100 1 11.4975 3.68783 2.08615 
101 1 10.22 2.95026 4.1723 
102 1 11.4975 0.737565 4.1723 
103 1 10.22 0 6.25845 
104 1 11.4975 2.2127 6.25845 
105 1 10.22 1.47513 8.3446 
106 1 11.4975 3.68783 8.3446 
107 1 10.22 2.95026 10.4307 
108 1 11.4975 0.737565 10.4307 
109 1 10.22 4.42539 0 
110 1 11.4975 6.63809 0 
111 1 10.22 5.90052 2.08615 
112 1 11.4975 8.11322 2.08615 
113 1 10.22 7.37565 4.1723 
114 1 11.4975 5.16296 4.1723 
115 1 10.22 4.42539 6.25845 
116 1 11.4975 6.63809 6.25845 
117 1 10.22 5.90052 8.3446 
118 1 11.4975 8.11322 8.3446 
119 1 10.22 7.37565 10.4307 
120 1 11.4975 5.16296 10.4307 
121 1 12.775 0 0 
122 1 14.0525 2.2127 0 
123 1 12.775 1.47513 2.08615 
124 1 14.0525 3.68783 2.08615 
125 1 12.775 2.95026 4.1723 
126 1 14.0525 0.737565 4.1723 
127 1 12.775 0 6.25845 
128 1 14.0525 2.2127 6.25845 
129 1 12.775 1.47513 8.3446 
130 1 14.0525 3.68783 8.3446 
131 1 12.775 2.95026 10.4307 
132 1 14.0525 0.737565 10.4307 
133 1 12.775 4.42539 0 
134 1 14.0525 6.63809 0 
135 1 12.775 5.90052 2.08615 
136 1 14.0525 8.11322 2.08615 
137 1 12.775 7.37565 4.1723 
138 1 14.0525 5.16296 4.1723 
139 1 12.775 4.42539 6.25845 
140 1 14.0525 6.63809 6.25845 
141 1 12.775 5.90052 8.3446 
142 1 14.0525 8.11322 8.3446 
143 1 12.775 7.37565 10.4307 
144 1 14.0525 5.16296 10.4307 
145 1 15.33 0 0 
146 1 16.6075 2.2127 0 
147 1 15.33 1.47513 2.08615 
148 1 16.6075 3.68783 2.08615 
149 1 15.33 2.95026 4.1723 
150 1 16.6075 0.737565 4.1723 
151 1 15.33 0 6.25845 
152 1 16.6075 2.2127 6.25845 
153 1 15.33 1.47513 8.3446 
154 1 16.6075 3.68783 8.3446 
155 1 15.33 2.95026 10.4307 
156 1 16.6075 0.737565 10.4307 
157 1 15.33 4.42539 0 
158 1 16.6075 6.63809 0 
159 1 15.33 5.90052 2.08615 
160 1 16.6075 8.11322 2.08615 
161 1 15.33 7.37565 4.1723 
162 1 16.6075 5.16296 4.1723 
163 1 15.33 4.42539 6.25845 
164 1 16.6075 6.63809 6.25845 
165 1 15.33 5.90052 8.3446 
166 1 16.6075 8.11322 8.3446 
167 1 15.33 7.37565 10.4307 
168 1 16.6075 5.16296 10.4307 
169 1 17.885 0 0 
170 1 19.1625 2.2127 0 
171 1 17.885 1.47513 2.08615 
172 1 19.1625 3.68783 2.08615 
173 1 17.885 2.95026 4.1723 
174 1 19.1625 0.737565 4.1723 
175 1 17.885 0 6.25845 
176 1 19.1625 2.2127 6.25845 
177 1 17.885 1.47513 8.3446 
178 1 19.1625 3.68783 8.3446 
179 1 17.885 2.95026 10.4307 
180 1 19.1625 0.737565 10.4307 
181 1 17.885 4.42539 0 
182 1 19.1625 6.63809 0 
183 1 17.885 5.90052 2.08615 
184 1 19.1625 8.11322 2.08615 
185 1 17.885 7.37565 4.1723 
186 1 19.1625 5.16296 4.1723 
187 1 17.885 4.42539 6.25845 
188 1 19.1625 6.63809 6.25845 
189 1 17.885 5.90052 8.3446 
190 1 19.1625 8.11322 8.3446 
191 1 17.885 7.37565 10.4307 
192 1 19.1625 5.16296 10.4307 
193 1 20.44 0 0 
194 1 21.7175 2.2127 0 
195 1 20.44 1.47513 2.08615 
196 1 21.7175 3.68783 2.08615 
197 1 20.44 2.95026 4.1723 
198 1 21.7175 0.737565 4.1723 
199 1 20.44 0 6.25845 
200 1 21.7175 2.2127 6.25845 
201 1 20.44 1.47513 8.3446 
202 1 21.7175 3.68783 8.3446 
203 1 20.44 2.95026 10.4307 
204 1 21.7175 0.737565 10.4307 
205 1 20.44 4.42539 0 
206 1 21.7175 6.63809 0 
207 1 20.44 5.90052 2.08615 
208 1 21.7175 8.11322 2.08615 
209 1 20.44 7.37565 4.1723 
210 1 21.7175 5.16296 4.1723 
211 1 20.44 4.42539 6.25845 
212 1 21.7175 6.63809 6.25845 
213 1 20.44 5.90052 8.3446 
214 1 21.7175 8.11322 8.3446 
215 1 20.44 7.37565 10.4307 
216 1 21.7175 5.16296 10.4307 
217 1 22.995 0 0 
218 1 24.2725 2.2127 0 
219 1 22.995 1.47513 2.08615 
220 1 24.2725 3.68783 2.08615 
221 1 22.995 2.95026 4.1723 
222 1 24.2725 0.737565 4.1723 
223 1 22.995 0 6.25845 
224 1 24.2725 2.2127 6.25845 
225 1 22.995 1.47513 8.3446 
226 1 24.2725 3.68783 8.3446 
227 1 22.995 2.95026 10.4307 
228 1 24.2725 0.737565 10.4307 
229 1 22.995 4.42539 0 
230 1 24.2725 6.63809 0 
231 1 22.995 5.90052 2.08615 
232 1 24.2725 8.11322 2.08615 
233 1 22.995 7.37565 4.1723 
234 1 24.2725 5.16296 4.1723 
235 1 22.995 4.42539 6.25845 
236 1 24.2725 6.63809 6.25845 
237 1 22.995 5.90052 8.3446 
238 1 24.2725 8.11322 8.3446 
239 1 22.995 7.37565 10.4307 
240 1 24.2725 5.16296 10.4307 
241 1 25.55 0 0 
242 1 26.8275 2.2127 0 
243 1 25.55 1.47513 2.08615 
244 1 26.8275 3.68783 2.08615 
245 1 25.55 2.95026 4.1723 
246 1 26.8275 0.737565 4.1723 
247 1 25.55 0 6.25845 
248 1 26.8275 2.2127 6.25845 
249 1 25.55 1.47513 8.3446 
250 1 26.8275 3.68783 8.3446 
251 1 25.55 2.95026 10.4307 
252 1 26.8275 0.737565 10.4307 
253 1 25.55 4.42539 0 
254 1 26.8275 6.63809 0 
255 1 25.55 5.90052 2.08615 
256 1 26.8275 8.11322 2.08615 
257 1 25.55 7.37565 4.1723 
258 1 26.8275 5.16296 4.1723 
259 1 25.55 4.42539 6.25845 
260 1 26.8275 6.63809 6.25845 
261 1 25.55 5.90052 8.3446 
262 1 26.8275 8.11322 8.3446 
263 1 25.55 7.37565 10.4307 
264 1 26.8275 5.16296 10.4307 
265 1 28.105 0 0 
266 1 29.3825 2.2127 0 
267 1 28.105 1.47513 2.08615 
268 1 29.3825 3.68783 2.08615 
269 1 28.105 2.95026 4.1723 
270 1 29.3825 0.737565 4.1723 
271 1 28.105 0 6.25845 
272 1 29.3825 2.2127 6.25845 
273 1 28.105 1.47513 8.3446 
274 1 29.3825 3.68783 8.3446 
275 1 28.105 2.95026 10.4307 
276 1 29.3825 0.737565 10.4307 
277 1 28.105 4.42539 0 
278 1 29.3825 6.63809 0 
279 1 28.105 5.90052 2.08615 
280 1 29.3825 8.11322 2.08615 
281 1 28.105 7.37565 4.1723 
282 1 29.3825 5.16296 4.1723 
283 1 28.105 4.42539 6.25845 
284 1 29.3825 6.63809 6.25845 
285 1 28.105 5.90052 8.3446 
286 1 29.3825 8.11322 8.3446 
287 1 28.105 7.37565 10.4307 
288 1 29.3825 5.16296 10.4307 
289 1 30.66 0 0 
290 1 31.9375 2.2127 0 
291 1 30.66 1.47513 2.08615 
292 1 31.9375 3.68783 2.08615 
293 1 30.66 2.95026 4.1723 
294 1 31.9375 0.737565 4.1723 
295 1 30.66 0 6.25845 
296 1 31.9375 2.2127 6.25845 
297 1 30.66 1.47513 8.3446 
298 1 31.9375 3.68783 8.3446 
299 1 30.66 2.95026 10.4307 
300 1 31.9375 0.737565 10.4307 
301 1 30.66 4.42539 0 
302 1 31.9375 6.63809 0 
303 1 30.66 5.90052 2.08615 
304 1 31.9375 8.11322 2.08615 
305 1 30.66 7.37565 4.1723 
306 1 31.9375 5.16296 4.1723 
307 1 30.66 4.42539 6.25845 
308 1 31.9375 6.63809 6.25845 
309 1 30.66 5.90052 8.3446 
310 1 31.9375 8.11322 8.3446 
311 1 30.66 7.37565 10.4307 
312 1 31.9375 5.16296 10.4307 
313 1 33.215 0 0 
314 1 34.4925 2.2127 0 
315 1 33.215 1.47513 2.08615 
316 1 34.4925 3.68783 2.08615 
317 1 33.215 2.95026 4.1723 
318 1 34.4925 0.737565 4.1723 
319 1 33.215 0 6.25845 
320 1 34.4925 2.2127 6.25845 
321 1 33.215 1.47513 8.3446 
322 1 34.4925 3.68783 8.3446 
323 1 33.215 2.95026 10.4307 
324 1 34.4925 0.737565 10.4307 
325 1 33.215 4.42539 0 
326 1 34.4925 6.63809 0 
327 1 33.215 5.90052 2.08615 
328 1 34.4925 8.11322 2.08615 
329 1 33.215 7.37565 4.1723 
330 1 34.4925 5.16296 4.1723 
331 1 33.215 4.42539 6.25845 
332 1 34.4925 6.63809 6.25845 
333 1 33.215 5.90052 8.3446 
334 1 34.4925 8.11322 8.3446 
335 1 33.215 7.37565 10.4307 
336 1 34.4925 5.16296 10.4307 
337 1 35.77 0 0 
338 1 37.0475 2.2127 0 
339 1 35.77 1.47513 2.08615 
340 1 37.0475 3.68783 2.08615 
341 1 35.77 2.95026 4.1723 
342 1 37.0475 0.737565 4.1723 
343 1 35.77 0 6.25845 
344 1 37.0475 2.2127 6.25845 
345 1 35.77 1.47513 8.3446 
346 1 37.0475 3.68783 8.3446 
347 1 35.77 2.95026 10.4307 
348 1 37.0475 0.737565 10.4307 
349 1 35.77 4.42539 0 
350 1 37.0475 6.63809 0 
351 1 35.77 5.90052 2.08615 
352 1 37.0475 8.11322 2.08615 
353 1 35.77 7.37565 4.1723 
354 1 37.0475 5.16296 4.1723 
355 1 35.77 4.42539 6.25845 
356 1 37.0475 6.63809 6.25845 
357 1 35.77 5.90052 8.3446 
358 1 37.0475 8.11322 8.3446 
359 1 35.77 7.37565 10.4307 
360 1 37.0475 5.16296 10.4307 
361 1 38.325 0 0 
362 1 39.6025 2.2127 0 
363 1 38.325 1.47513 2.08615 
364 1 39.6025 3.68783 2.08615 
365 1 38.325 2.95026 4.1723 
366 1 39.6025 0.737565 4.1723 
367 1 38.325 0 6.25845 
368 1 39.6025 2.2127 6.25845 
369 1 38.325 1.47513 8.3446 
370 1 39.6025 3.68783 8.3446 
371 1 38.325 2.95026 10.4307 
372 1 39.6025 0.737565 10.4307 
373 1 38.325 4.42539 0 
374 1 39.6025 6.63809 0 
375 1 38.325 5.90052 2.08615 
376 1 39.6025 8.11322 2.08615 
377 1 38.325 7.37565 4.1723 
378 1 39.6025 5.16296 4.1723 
379 1 38.325 4.42539 6.25845 
380 1 39.6025 6.63809 6.25845 
381 1 38.325 5.90052 8.3446 
382 1 39.6025 8.11322 8.3446 
383 1 38.325 7.37565 10.4307 
384 1 39.6025 5.16296 10.4307 
385 1 40.88 0 0 
386 1 42.1575 2.2127 0 
387 1 40.88 1.47513 2.08615 
388 1 42.1575 3.68783 2.08615 
389 1 40.88 2.95026 4.1723 
390 1 42.1575 0.737565 4.1723 
391 1 40.88 0 6.25845 
392 1 42.1575 2.2127 6.25845 
393 1 40.88 1.47513 8.3446 
394 1 42.1575 3.68783 8.3446 
395 1 40.88 2.95026 10.4307 
396 1 42.1575 0.737565 10.4307 
397 1 40.88 4.42539 0 
398 1 42.1575 6.63809 0 
399 1 40.88 5.90052 2.08615 
400 1 42.1575 8.11322 2.08615 
401 1 40.88 7.37565 4.1723 
402 1 42.1575 5.16296 4.1723 
403 1 40.88 4.42539 6.25845 
404 1 42.1575 6.63809 6.25845 
405 1 40.88 5.90052 8.3446 
406 1 42.1575 8.11322 8.3446 
407 1 40.88 7.37565 10.4307 
408 1 42.1575 5.16296 10.4307 
409 1 43.435 0 0 
410 1 44.7125 2.2127 0 
411 1 43.435 1.47513 2.08615 
412 1 44.7125 3.68783 2.08615 
413 1 43.435 2.95026 4.1723 
414 1 44.7125 0.737565 4.1723 
415 1 43.435 0 6.25845 
416 1 44.7125 2.2127 6.25845 
417 1 43.435 1.47513 8.3446 
418 1 44.7125 3.68783 8.3446 
419 1 43.435 2.95026 10.4307 
420 1 44.7125 0.737565 10.4307 
421 1 43.435 4.42539 0 
422 1 44.7125 6.63809 0 
423 1 43.435 5.90052 2.08615 
424 1 44.7125 8.11322 2.08615 
425 1 43.435 7.37565 4.1723 
426 1 44.7125 5.16296 4.1723 
427 1 43.435 4.42539 6.25845 
428 1 44.7125 6.63809 6.25845 
429 1 43.435 5.90052 8.3446 
430 1 44.7125 8.11322 8.3446 
431 1 43.435 7.37565 10.4307 
432 1 44.7125 5.16296 10.4307 
433 1 45.99 0 0 
434 1 47.2675 2.2127 0 
435 1 45.99 1.47513 2.08615 
436 1 47.2675 3.68783 2.08615 
437 1 45.99 2.95026 4.1723 
438 1 47.2675 0.737565 4.1723 
439 1 45.99 0 6.25845 
440 1 47.2675 2.2127 6.25845 
441 1 45.99 1.47513 8.3446 
442 1 47.2675 3.68783 8.3446 
443 1 45.99 2.95026 10.4307 
444 1 47.2675 0.737565 10.4307 
445 1 45.99 4.42539 0 
446 1 47.2675 6.63809 0 
447 1 45.99 5.90052 2.08615 
448 1 47.2675 8.11322 2.08615 
449 1 45.99 7.37565 4.1723 
450 1 47.2675 5.16296 4.1723 
451 1 45.99 4.42539 6.25845 
452 1 47.2675 6.63809 6.25845 
453 1 45.99 5.90052 8.3446 
454 1 47.2675 8.11322 8.3446 
455 1 45.99 7.37565 10.4307 
456 1 47.2675 5.16296 10.4307 
457 1 48.545 0 0 
458 1 49.8225 2.2127 0 
459 1 48.545 1.47513 2.08615 
460 1 49.8225 3.68783 2.08615 
461 1 48.545 2.95026 4.1723 
462 1 49.8225 0.737565 4.1723 
463 1 48.545 0 6.25845 
464 1 49.8225 2.2127 6.25845 
465 1 48.545 1.47513 8.3446 
466 1 49.8225 3.68783 8.3446 
467 1 48.545 2.95026 10.4307 
468 1 49.8225 0.737565 10.4307 
469 1 48.545 4.42539 0 
470 1 49.8225 6.63809 0 
471 1 48.545 5.90052 2.08615 
472 1 49.8225 8.11322 2.08615 
473 1 48.545 7.37565 4.1723 
474 1 49.8225 5.16296 4.1723 
475 1 48.545 4.42539 6.25845 
476 1 49.8225 6.63809 6.25845 
477 1 48.545 5.90052 8.3446 
478 1 49.8225 8.11322 8.3446 
479 1 48.545 7.37565 10.4307 
480 1 49.8225 5.16296 10.4307 
481 1 51.1 0 0 
482 1 52.3775 2.2127 0 
483 1 51.1 1.47513 2.08615 
484 1 52.3775 3.68783 2.08615 
485 1 51.1 2.95026 4.1723 
486 1 52.3775 0.737565 4.1723 
487 1 51.1 0 6.25845 
488 1 52.3775 2.2127 6.25845 
489 1 51.1 1.47513 8.3446 
490 1 52.3775 3.68783 8.3446 
491 1 51.1 2.95026 10.4307 
492 1 52.3775 0.737565 10.4307 
493 1 51.1 4.42539 0 
494 1 52.3775 6.63809 0 
495 1 51.1 5.90052 2.08615 
496 1 52.3775 8.11322 2.08615 
497 1 51.1 7.37565 4.1723 
498 1 52.3775 5.16296 4.1723 
499 1 51.1 4.42539 6.25845 
500 1 52.3775 6.63809 6.25845 
501 1 51.1 5.90052 8.3446 
502 1 52.3775 8.11322 8.3446 
503 1 51.1 7.37565 10.4307 
504 1 52.3775 5.16296 10.4307 
505 1 53.655 0 0 
506 1 54.9325 2.2127 0 
507 1 53.655 1.47513 2.08615 
508 1 54.9325 3.68783 2.08615 
509 1 53.655 2.95026 4.1723 
510 1 54.9325 0.737565 4.1723 
511 1 53.655 0 6.25845 
512 1 54.9325 2.2127 6.25845 
513 1 53.655 1.47513 8.3446 
514 1 54.9325 3.68783 8.3446 
515 1 53.655 2.95026 10.4307 
516 1 54.9325 0.737565 10.4307 
517 1 53.655 4.42539 0 
518 1 54.9325 6.63809 0 
519 1 53.655 5.90052 2.08615 
520 1 54.9325 8.11322 2.08615 
521 1 53.655 7.37565 4.1723 
522 1 54.9325 5.16296 4.1723 
523 1 53.655 4.42539 6.25845 
524 1 54.9325 6.63809 6.25845 
525 1 53.655 5.90052 8.3446 
526 1 54.9325 8.11322 8.3446 
527 1 53.655 7.37565 10.4307 
528 1 54.9325 5.16296 10.4307 
529 1 56.21 0 0 
530 1 57.4875 2.2127 0 
531 1 56.21 1.47513 2.08615 
532 1 57.4875 3.68783 2.08615 
533 1 56.21 2.95026 4.1723 
534 1 57.4875 0.737565 4.1723 
535 1 56.21 0 6.25845 
536 1 57.4875 2.2127 6.25845 
537 1 56.21 1.47513 8.3446 
538 1 57.4875 3.68783 8.3446 
539 1 56.21 2.95026 10.4307 
540 1 57.4875 0.737565 10.4307 
541 1 56.21 4.42539 0 
542 1 57.4875 6.63809 0 
543 1 56.21 5.90052 2.08615 
544 1 57.4875 8.11322 2.08615 
545 1 56.21 7.37565 4.1723 
546 1 57.4875 5.16296 4.1723 
547 1 56.21 4.42539 6.25845 
548 1 57.4875 6.63809 6.25845 
549 1 56.21 5.90052 8.3446 
550 1 57.4875 8.11322 8.3446 
551 1 56.21 7.37565 10.4307 
552 1 57.4875 5.16296 10.4307 
553 1 58.765 0 0 
554 1 60.0425 2.2127 0 
555 1 58.765 1.47513 2.08615 
556 1 60.0425 3.68783 2.08615 
557 1 58.765 2.95026 4.1723 
558 1 60.0425 0.737565 4.1723 
559 1 58.765 0 6.25845 
560 1 60.0425 2.2127 6.25845 
561 1 58.765 1.47513 8.3446 
562 1 60.0425 3.68783 8.3446 
563 1 58.765 2.95026 10.4307 
564 1 60.0425 0.737565 10.4307 
565 1 58.765 4.42539 0 
566 1 60.0425 6.63809 0 
567 1 58.765 5.90052 2.08615 
568 1 60.0425 8.11322 2.08615 
569 1 58.765 7.37565 4.1723 
570 1 60.0425 5.16296 4.1723 
571 1 58.765 4.42539 6.25845 
572 1 60.0425 6.63809 6.25845 
573 1 58.765 5.90052 8.3446 
574 1 60.0425 8.11322 8.3446 
575 1 58.765 7.37565 10.4307 
576 1 60.0425 5.16296 10.4307 
577 1 61.32 0 0 
578 1 62.5975 2.2127 0 
579 1 61.32 1.47513 2.08615 
580 1 62.5975 3.68783 2.08615 
581 1 61.32 2.95026 4.1723 
582 1 62.5975 0.737565 4.1723 
583 1 61.32 0 6.25845 
584 1 62.5975 2.2127 6.25845 
585 1 61.32 1.47513 8.3446 
586 1 62.5975 3.68783 8.3446 
587 1 61.32 2.95026 10.4307 
588 1 62.5975 0.737565 10.4307 
589 1 61.32 4.42539 0 
590 1 62.5975 6.63809 0 
591 1 61.32 5.90052 2.08615 
592 1 62.5975 8.11322 2.08615 
593 1 61.32 7.37565 4.1723 
594 1 62.5975 5.16296 4.1723 
595 1 61.32 4.42539 6.25845 
596 1 62.5975 6.63809 6.25845 
597 1 61.32 5.90052 8.3446 
598 1 62.5975 8.11322 8.3446 
599 1 61.32 7.37565 10.4307 
600 1 62.5975 5.16296 10.4307 
601 1 63.875 0 0 
602 1 65.1525 2.2127 0 
603 1 63.875 1.47513 2.08615 
604 1 65.1525 3.68783 2.08615 
605 1 63.875 2.95026 4.1723 
606 1 65.1525 0.737565 4.1723 
607 1 63.875 0 6.25845 
608 1 65.1525 2.2127 6.25845 
609 1 63.875 1.47513 8.3446 
610 1 65.1525 3.68783 8.3446 
611 1 63.875 2.95026 10.4307 
612 1 65.1525 0.737565 10.4307 
613 1 63.875 4.42539 0 
614 1 65.1525 6.63809 0 
615 1 63.875 5.90052 2.08615 
616 1 65.1525 8.11322 2.08615 
617 1 63.875 7.37565 4.1723 
618 1 65.1525 5.16296 4.1723 
619 1 63.875 4.42539 6.25845 
620 1 65.1525 6.63809 6.25845 
621 1 63.875 5.90052 8.3446 
622 1 65.1525 8.11322 8.3446 
623 1 63.875 7.37565 10.4307 
624 1 65.1525 5.16296 10.4307 
625 1 66.43 0 0 
626 1 67.7075 2.2127 0 
627 1 66.43 1.47513 2.08615 
628 1 67.7075 3.68783 2.08615 
629 1 66.43 2.95026 4.1723 
630 1 67.7075 0.737565 4.1723 
631 1 66.43 0 6.25845 
632 1 67.7075 2.2127 6.25845 
633 1 66.43 1.47513 8.3446 
634 1 67.7075 3.68783 8.3446 
635 1 66.43 2.95026 10.4307 
636 1 67.7075 0.737565 10.4307 
637 1 66.43 4.42539 0 
638 1 67.7075 6.63809 0 
639 1 66.43 5.90052 2.08615 
640 1 67.7075 8.11322 2.08615 
641 1 66.43 7.37565 4.1723 
642 1 67.7075 5.16296 4.1723 
643 1 66.43 4.42539 6.25845 
644 1 67.7075 6.63809 6.25845 
645 1 66.43 5.90052 8.3446 
646 1 67.7075 8.11322 8.3446 
647 1 66.43 7.37565 10.4307 
648 1 67.7075 5.16296 10.4307 
649 1 68.985 0 0 
650 1 70.2625 2.2127 0 
651 1 68.985 1.47513 2.08615 
652 1 70.2625 3.68783 2.08615 
653 1 68.985 2.95026 4.1723 
654 1 70.2625 0.737565 4.1723 
655 1 68.985 0 6.25845 
656 1 70.2625 2.2127 6.25845 
657 1 68.985 1.47513 8.3446 
658 1 70.2625 3.68783 8.3446 
659 1 68.985 2.95026 10.4307 
660 1 70.2625 0.737565 10.4307 
661 1 68.985 4.42539 0 
662 1 70.2625 6.63809 0 
663 1 68.985 5.90052 2.08615 
664 1 70.2625 8.11322 2.08615 
665 1 68.985 7.37565 4.1723 
666 1 70.2625 5.16296 4.1723 
667 1 68.985 4.42539 6.25845 
668 1 70.2625 6.63809 6.25845 
669 1 68.985 5.90052 8.3446 
670 1 70.2625 8.11322 8.3446 
671 1 68.985 7.37565 10.4307 
672 1 70.2625 5.16296 10.4307 
673 1 71.54 0 0 
674 1 72.8175 2.2127 0 
675 1 71.54 1.47513 2.08615 
676 1 72.8175 3.68783 2.08615 
677 1 71.54 2.95026 4.1723 
678 1 72.8175 0.737565 4.1723 
679 1 71.54 0 6.25845 
680 1 72.8175 2.2127 6.25845 
681 1 71.54 1.47513 8.3446 
682 1 72.8175 3.68783 8.3446 
683 1 71.54 2.95026 10.4307 
684 1 72.8175 0.737565 10.4307 
685 1 71.54 4.42539 0 
686 1 72.8175 6.63809 0 
687 1 71.54 5.90052 2.08615 
688 1 72.8175 8.11322 2.08615 
689 1 71.54 7.37565 4.1723 
690 1 72.8175 5.16296 4.1723 
691 1 71.54 4.42539 6.25845 
692 1 72.8175 6.63809 6.25845 
693 1 71.54 5.90052 8.3446 
694 1 72.8175 8.11322 8.3446 
695 1 71.54 7.37565 10.4307 
696 1 72.8175 5.16296 10.4307 
697 1 74.095 0 0 
698 1 75.3725 2.2127 0 
699 1 74.095 1.47513 2.08615 
700 1 75.3725 3.68783 2.08615 
701 1 74.095 2.95026 4.1723 
702 1 75.3725 0.737565 4.1723 
703 1 74.095 0 6.25845 
704 1 75.3725 2.2127 6.25845 
705 1 74.095 1.47513 8.3446 
706 1 75.3725 3.68783 8.3446 
707 1 74.095 2.95026 10.4307 
708 1 75.3725 0.737565 10.4307 
709 1 74.095 4.42539 0 
710 1 75.3725 6.63809 0 
711 1 74.095 5.90052 2.08615 
712 1 75.3725 8.11322 2.08615 
713 1 74.095 7.37565 4.1723 
714 1 75.3725 5.16296 4.1723 
715 1 74.095 4.42539 6.25845 
716 1 75.3725 6.63809 6.25845 
717 1 74.095 5.90052 8.3446 
718 1 75.3725 8.11322 8.3446 
719 1 74.095 7.37565 10.4307 
720 1 75.3725 5.16296 10.4307 
ITEM: TIMESTEP
1
ITEM: NUMBER OF ATOMS
720
ITEM: BOX BOUNDS xy xz yz pp pp ss
0 96.65 0
0 8.85078 0
-0.00125169 10.432 0
ITEM: ATOMS id type x y z 
1 1 0.0352231 0.0123824 0.0168406 
2 1 1.26217 2.20632 0.0284396 
3 1 0.0523981 1.47352 2.07603 
4 1 1.24263 3.68745 2.07708 
5 1 0.0481693 2.95026 4.1723 
6 1 1.23766 0.737565 4.1723 
7 1 0.0481693 0 6.25845 
8 1 1.23766 2.2127 6.25845 
9 1 0.0523981 1.47674 8.35472 
10 1 1.24263 3.68821 8.35366 
11 1 0.0352231 2.93788 10.4139 
12 1 1.26217 0.743943 10.4023 
13 1 0.0352231 4.43777 0.0168406 
14 1 1.26217 6.63171 0.0284396 
15 1 0.0523981 5.89891 2.07603 
16 1 1.24263 8.11284 2.07708 
17 1 0.0481693 7.37565 4.1723 
18 1 1.23766 5.16296 4.1723 
19 1 0.0481693 4.42539 6.25845 
20 1 1.23766 6.63809 6.25845 
21 1 0.0523981 5.90213 8.35472 
22 1 1.24263 8.1136 8.35366 
23 1 0.0352231 7.36327 10.4139 
24 1 1.26217 5.16933 10.4023 
25 1 2.5508 8.45225e-06 0.0150373 
26 1 3.82475 2.21271 0.0132926 
27 1 2.55382 1.475 2.07296 
28 1 3.82542 3.68783 2.07264 
29 1 2.55375 2.95026 4.1723 
30 1 3.82542 0.737565 4.1723 
31 1 2.55375 6.19644e-17 6.25845 
32 1 3.82542 2.2127 6.25845 
33 1 2.55382 1.47526 8.35779 
34 1 3.82542 3.68783 8.3581 
35 1 2.5508 2.95025 10.4157 
36 1 3.82475 0.737545 10.4175 
37 1 2.5508 4.4254 0.0150373 
38 1 3.82475 6.63811 0.0132926 
39 1 2.55382 5.90039 2.07296 
40 1 3.82542 8.11322 2.07264 
41 1 2.55375 7.37565 4.1723 
42 1 3.82542 5.16296 4.1723 
43 1 2.55375 4.42539 6.25845 
44 1 3.82542 6.63809 6.25845 
45 1 2.55382 5.90065 8.35779 
46 1 3.82542 8.11322 8.3581 
47 1 2.5508 7.37564 10.4157 
48 1 3.82475 5.16294 10.4175 
49 1 5.11 4.0693e-17 0.0135041 
50 1 6.3875 2.2127 0.0135041 
51 1 5.11 1.47513 2.07264 
52 1 6.3875 3.68783 2.07264 
53 1 5.11 2.95026 4.1723 
54 1 6.3875 0.737565 4.1723 
55 1 5.11 3.37906e-17 6.25845 
56 1 6.3875 2.2127 6.25845 
57 1 5.11 1.47513 8.3581 
58 1 6.3875 3.68783 8.3581 
59 1 5.11 2.95026 10.4172 
60 1 6.3875 0.737565 10.4172 
61 1 5.11 4.42539 0.0135041 
62 1 6.3875 6.63809 0.0135041 
63 1 5.11 5.90052 2.07264 
64 1 6.3875 8.11322 2.07264 
65 1 5.11 7.37565 4.1723 
66 1 6.3875 5.16296 4.1723 
67 1 5.11 4.42539 6.25845 
68 1 6.3875 6.63809 6.25845 
69 1 5.11 5.90052 8.3581 
70 1 6.3875 8.11322 8.3581 
71 1 5.11 7.37565 10.4172 
72 1 6.3875 5.16296 10.4172 
73 1 7.665 1.01733e-16 0.0135041 
74 1 8.9425 2.2127 0.0135041 
75 1 7.665 1.47513 2.07264 
76 1 8.9425 3.68783 2.07264 
77 1 7.665 2.95026 4.1723 
78 1 8.9425 0.737565 4.1723 
79 1 7.665 1.28083e-16 6.25845 
80 1 8.9425 2.2127 6.25845 
81 1 7.665 1.47513 8.3581 
82 1 8.9425 3.68783 8.3581 
83 1 7.665 2.95026 10.4172 
84 1 8.9425 0.737565 10.4172 
85 1 7.665 4.42539 0.0135041 
86 1 8.9425 6.63809 0.0135041 
87 1 7.665 5.90052 2.07264 
88 1 8.9425 8.11322 2.07264 
89 1 7.665 7.37565 4.1723 
90 1 8.9425 5.16296 4.1723 
91 1 7.665 4.42539 6.25845 
92 1 8.9425 6.63809 6.25845 
93 1 7.665 5.90052 8.3581 
94 1 8.9425 8.11322 8.3581 
95 1 7.665 7.37565 10.4172 
96 1 8.9425 5.16296 10.4172 
97 1 10.22 7.02879e-17 0.0135041 
98 1 11.4975 2.2127 0.0135041 
99 1 10.22 1.47513 2.07264 
100 1 11.4975 3.68783 2.07264 
101 1 10.22 2.95026 4.1723 
102 1 11.4975 0.737565 4.1723 
103 1 10.22 1.0413e-16 6.25845 
104 1 11.4975 2.2127 6.25845 
105 1 10.22 1.47513 8.3581 
106 1 11.4975 3.68783 8.3581 
107 1 10.22 2.95026 10.4172 
108 1 11.4975 0.737565 10.4172 
109 1 10.22 4.42539 0.0135041 
110 1 11.4975 6.63809 0.0135041 
111 1 10.22 5.90052 2.07264 
112 1 11.4975 8.11322 2.07264 
113 1 10.22 7.37565 4.1723 
114 1 11.4975 5.16296 4.1723 
115 1 10.22 4.42539 6.25845 
116 1 11.4975 6.63809 6.25845 
117 1 10.22 5.90052 8.3581 
118 1 11.4975 8.11322 8.3581 
119 1 10.22 7.37565 10.4172 
120 1 11.4975 5.16296 10.4172 
121 1 12.775 1.1838e-16 0.0135041 
122 1 14.0525 2.2127 0.0135041 
123 1 12.775 1.47513 2.07264 
124 1 14.0525 3.68783 2.07264 
125 1 12.775 2.95026 4.1723 
126 1 14.0525 0.737565 4.1723 
127 1 12.775 1.09411e-16 6.25845 
128 1 14.0525 2.2127 6.25845 
129 1 12.775 1.47513 8.3581 
130 1 14.0525 3.68783 8.3581 
131 1 12.775 2.95026 10.4172 
132 1 14.0525 0.737565 10.4172 
133 1 12.775 4.42539 0.0135041 
134 1 14.0525 6.63809 0.0135041 
135 1 12.775 5.90052 2.07264 
136 1 14.0525 8.11322 2.07264 
137 1 12.775 7.37565 4.1723 
138 1 14.0525 5.16296 4.1723 
139 1 12.775 4.42539 6.25845 
140 1 14.0525 6.63809 6.25845 
141 1 12.775 5.90052 8.3581 
142 1 14.0525 8.11322 8.3581 
143 1 12.775 7.37565 10.4172 
144 1 14.0525 5.16296 10.4172 
145 1 15.33 5.17911e-17 0.0135041 
146 1 16.6075 2.2127 0.0135041 
147 1 15.33 1.47513 2.07264 
148 1 16.6075 3.68783 2.07264 
149 1 15.33 2.95026 4.1723 
150 1 16.6075 0.737565 4.1723 
151 1 15.33 1.0114e-16 6.25845 
152 1 16.6075 2.2127 6.25845 
153 1 15.33 1.47513 8.3581 
154 1 16.6075 3.68783 8.3581 
155 1 15.33 2.95026 10.4172 
156 1 16.6075 0.737565 10.4172 
157 1 15.33 4.42539 0.0135041 
158 1 16.6075 6.63809 0.0135041 
159 1 15.33 5.90052 2.07264 
160 1 16.6075 8.11322 2.07264 
161 1 15.33 7.37565 4.1723 
162 1 16.6075 5.16296 4.1723 
163 1 15.33 4.42539 6.25845 
164 1 16.6075 6.63809 6.25845 
165 1 15.33 5.90052 8.3581 
166 1 16.6075 8.11322 8.3581 
167 1 15.33 7.37565 10.4172 
168 1 16.6075 5.16296 10.4172 
169 1 17.885 8.1386e-17 0.0135041 
170 1 19.1625 2.2127 0.0135041 
171 1 17.885 1.47513 2.07264 
172 1 19.1625 3.68783 2.07264 
173 1 17.885 2.95026 4.1723 
174 1 19.1625 0.737565 4.1723 
175 1 17.885 8.58683e-17 6.25845 
176 1 19.1625 2.2127 6.25845 
177 1 17.885 1.47513 8.3581 
178 1 19.1625 3.68783 8.3581 
179 1 17.885 2.95026 10.4172 
180 1 19.1625 0.737565 10.4172 
181 1 17.885 4.42539 0.0135041 
182 1 19.1625 6.63809 0.0135041 
183 1 17.885 5.90052 2.07264 
184 1 19.1625 8.11322 2.07264 
185 1 17.885 7.37565 4.1723 
186 1 19.1625 5.16296 4.1723 
187 1 17.885 4.42539 6.25845 
188 1 19.1625 6.63809 6.25845 
189 1 17.885 5.90052 8.3581 
190 1 19.1625 8.11322 8.3581 
191 1 17.885 7.37565 10.4172 
192 1 19.1625 5.16296 10.4172 
193 1 20.44 7.95364e-17 0.0135041 
194 1 21.7175 2.2127 0.0135041 
195 1 20.44 1.47513 2.07264 
196 1 21.7175 3.68783 2.07264 
197 1 20.44 2.95026 4.1723 
198 1 21.7175 0.737565 4.1723 
199 1 20.44 1.52472e-16 6.25845 
200 1 21.7175 2.2127 6.25845 
201 1 20.44 1.47513 8.3581 
202 1 21.7175 3.68783 8.3581 
203 1 20.44 2.95026 10.4172 
204 1 21.7175 0.737565 10.4172 
205 1 20.44 4.42539 0.0135041 
206 1 21.7175 6.63809 0.0135041 
207 1 20.44 5.90052 2.07264 
208 1 21.7175 8.11322 2.07264 
209 1 20.44 7.37565 4.1723 
210 1 21.7175 5.16296 4.1723 
211 1 20.44 4.42539 6.25845 
212 1 21.7175 6.63809 6.25845 
213 1 20.44 5.90052 8.3581 
214 1 21.7175 8.11322 8.3581 
215 1 20.44 7.37565 10.4172 
216 1 21.7175 5.16296 10.4172 
217 1 22.995 7.95364e-17 0.0135041 
218 1 24.2725 2.2127 0.0135041 
219 1 22.995 1.47513 2.07264 
220 1 24.2725 3.68783 2.07264 
221 1 22.995 2.95026 4.1723 
222 1 24.2725 0.737565 4.1723 
223 1 22.995 6.12255e-17 6.25845 
224 1 24.2725 2.2127 6.25845 
225 1 22.995 1.47513 8.3581 
226 1 24.2725 3.68783 8.3581 
227 1 22.995 2.95026 10.4172 
228 1 24.2725 0.737565 10.4172 
229 1 22.995 4.42539 0.0135041 
230 1 24.2725 6.63809 0.0135041 
231 1 22.995 5.90052 2.07264 
232 1 24.2725 8.11322 2.07264 
233 1 22.995 7.37565 4.1723 
234 1 24.2725 5.16296 4.1723 
235 1 22.995 4.42539 6.25845 
236 1 24.2725 6.63809 6.25845 
237 1 22.995 5.90052 8.3581 
238 1 24.2725 8.11322 8.3581 
239 1 22.995 7.37565 10.4172 
240 1 24.2725 5.16296 10.4172 
241 1 25.55 -2.58956e-17 0.0135041 
242 1 26.8275 2.2127 0.0135041 
243 1 25.55 1.47513 2.07264 
244 1 26.8275 3.68783 2.07264 
245 1 25.55 2.95026 4.1723 
246 1 26.8275 0.737565 4.1723 
247 1 25.55 1.06305e-16 6.25845 
248 1 26.8275 2.2127 6.25845 
249 1 25.55 1.47513 8.3581 
250 1 26.8275 3.68783 8.3581 
251 1 25.55 2.95026 10.4172 
252 1 26.8275 0.737565 10.4172 
253 1 25.55 4.42539 0.0135041 
254 1 26.8275 6.63809 0.0135041 
255 1 25.55 5.90052 2.07264 
256 1 26.8275 8.11322 2.07264 
257 1 25.55 7.37565 4.1723 
258 1 26.8275 5.16296 4.1723 
259 1 25.55 4.42539 6.25845 
260 1 26.8275 6.63809 6.25845 
261 1 25.55 5.90052 8.3581 
262 1 26.8275 8.11322 8.3581 
263 1 25.55 7.37565 10.4172 
264 1 26.8275 5.16296 10.4172 
265 1 28.105 1.10981e-16 0.0135041 
266 1 29.3825 2.2127 0.0135041 
267 1 28.105 1.47513 2.07264 
268 1 29.3825 3.68783 2.07264 
269 1 28.105 2.95026 4.1723 
270 1 29.3825 0.737565 4.1723 
271 1 28.105 -1.31316e-17 6.25845 
272 1 29.3825 2.2127 6.25845 
273 1 28.105 1.47513 8.3581 
274 1 29.3825 3.68783 8.3581 
275 1 28.105 2.95026 10.4172 
276 1 29.3825 0.737565 10.4172 
277 1 28.105 4.42539 0.0135041 
278 1 29.3825 6.63809 0.0135041 
279 1 28.105 5.90052 2.07264 
280 1 29.3825 8.11322 2.07264 
281 1 28.105 7.37565 4.1723 
282 1 29.3825 5.16296 4.1723 
283 1 28.105 4.42539 6.25845 
284 1 29.3825 6.63809 6.25845 
285 1 28.105 5.90052 8.3581 
286 1 29.3825 8.11322 8.3581 
287 1 28.105 7.37565 10.4172 
288 1 29.3825 5.16296 10.4172 
289 1 30.66 1.10981e-16 0.0135041 
290 1 31.9375 2.2127 0.0135041 
291 1 30.66 1.47513 2.07264 
292 1 31.9375 3.68783 2.07264 
293 1 30.66 2.95026 4.1723 
294 1 31.9375 0.737565 4.1723 
295 1 30.66 4.70264e-17 6.25845 
296 1 31.9375 2.2127 6.25845 
297 1 30.66 1.47513 8.3581 
298 1 31.9375 3.68783 8.3581 
299 1 30.66 2.95026 10.4172 
300 1 31.9375 0.737565 10.4172 
301 1 30.66 4.42539 0.0135041 
302 1 31.9375 6.63809 0.0135041 
303 1 30.66 5.90052 2.07264 
304 1 31.9375 8.11322 2.07264 
305 1 30.66 7.37565 4.1723 
306 1 31.9375 5.16296 4.1723 
307 1 30.66 4.42539 6.25845 
308 1 31.9375 6.63809 6.25845 
309 1 30.66 5.90052 8.3581 
310 1 31.9375 8.11322 8.3581 
311 1 30.66 7.37565 10.4172 
312 1 31.9375 5.16296 10.4172 
313 1 33.215 2.95949e-17 0.0135041 
314 1 34.4925 2.2127 0.0135041 