 
 54 atoms 
 
 1 atom types
 0.00000000000000000000 10.73406300000000079820 xlo xhi
 0.00000000000000000000 10.73406300000000079820 ylo yhi
 0.00000000000000000000 10.73406300000000079820 zlo zhi
 
 Atoms 
 
	1	1	0.00000000000000000000	0.00000000000000000000	0.00000000000000000000
	2	1	1.78901050000000005902	1.78901050000000005902	1.78901050000000005902
	3	1	0.00000000000000000000	0.00000000000000000000	3.57802100000000011804
	4	1	1.78901050000000005902	1.78901050000000005902	5.36703150000000039910
	5	1	0.00000000000000000000	0.00000000000000000000	7.15604200000000023607
	6	1	1.78901050000000005902	1.78901050000000005902	8.94505250000000096122
	7	1	0.00000000000000000000	3.57802100000000011804	0.00000000000000000000
	8	1	1.78901050000000005902	5.36703150000000039910	1.78901050000000005902
	9	1	0.00000000000000000000	3.57802100000000011804	3.57802100000000011804
	10	1	1.78901050000000005902	5.36703150000000039910	5.36703150000000039910
	11	1	0.00000000000000000000	3.57802100000000011804	7.15604200000000023607
	12	1	1.78901050000000005902	5.36703150000000039910	8.94505250000000096122
	13	1	0.00000000000000000000	7.15604200000000023607	0.00000000000000000000
	14	1	1.78901050000000005902	8.94505250000000096122	1.78901050000000005902
	15	1	0.00000000000000000000	7.15604200000000023607	3.57802100000000011804
	16	1	1.78901050000000005902	8.94505250000000096122	5.36703150000000039910
	17	1	0.00000000000000000000	7.15604200000000023607	7.15604200000000023607
	18	1	1.78901050000000005902	8.94505250000000096122	8.94505250000000096122
	19	1	3.57802100000000011804	0.00000000000000000000	0.00000000000000000000
	20	1	5.36703150000000039910	1.78901050000000005902	1.78901050000000005902
	21	1	3.57802100000000011804	0.00000000000000000000	3.57802100000000011804
	22	1	5.36703150000000039910	1.78901050000000005902	5.36703150000000039910
	23	1	3.57802100000000011804	0.00000000000000000000	7.15604200000000023607
	24	1	5.36703150000000039910	1.78901050000000005902	8.94505250000000096122
	25	1	3.57802100000000011804	3.57802100000000011804	0.00000000000000000000
	26	1	5.36703150000000039910	5.36703150000000039910	1.78901050000000005902
	27	1	3.57802100000000011804	3.57802100000000011804	3.57802100000000011804
	28	1	5.36703150000000039910	5.36703150000000039910	5.36703150000000039910
	29	1	3.57802100000000011804	3.57802100000000011804	7.15604200000000023607
	30	1	5.36703150000000039910	5.36703150000000039910	8.94505250000000096122
	31	1	3.57802100000000011804	7.15604200000000023607	0.00000000000000000000
	32	1	5.36703150000000039910	8.94505250000000096122	1.78901050000000005902
	33	1	3.57802100000000011804	7.15604200000000023607	3.57802100000000011804
	34	1	5.36703150000000039910	8.94505250000000096122	5.36703150000000039910
	35	1	3.57802100000000011804	7.15604200000000023607	7.15604200000000023607
	36	1	5.36703150000000039910	8.94505250000000096122	8.94505250000000096122
	37	1	7.15604200000000023607	0.00000000000000000000	0.00000000000000000000
	38	1	8.94505250000000096122	1.78901050000000005902	1.78901050000000005902
	39	1	7.15604200000000023607	0.00000000000000000000	3.57802100000000011804
	40	1	8.94505250000000096122	1.78901050000000005902	5.36703150000000039910
	41	1	7.15604200000000023607	0.00000000000000000000	7.15604200000000023607
	42	1	8.94505250000000096122	1.78901050000000005902	8.94505250000000096122
	43	1	7.15604200000000023607	3.57802100000000011804	0.00000000000000000000
	44	1	8.94505250000000096122	5.36703150000000039910	1.78901050000000005902
	45	1	7.15604200000000023607	3.57802100000000011804	3.57802100000000011804
	46	1	8.94505250000000096122	5.36703150000000039910	5.36703150000000039910
	47	1	7.15604200000000023607	3.57802100000000011804	7.15604200000000023607
	48	1	8.94505250000000096122	5.36703150000000039910	8.94505250000000096122
	49	1	7.15604200000000023607	7.15604200000000023607	0.00000000000000000000
	50	1	8.94505250000000096122	8.94505250000000096122	1.78901050000000005902
	51	1	7.15604200000000023607	7.15604200000000023607	3.57802100000000011804
	52	1	8.94505250000000096122	8.94505250000000096122	5.36703150000000039910
	53	1	7.15604200000000023607	7.15604200000000023607	7.15604200000000023607
	54	1	8.94505250000000096122	8.94505250000000096122	8.94505250000000096122
