ITEM: TIMESTEP
0
ITEM: NUMBER OF ATOMS
54
ITEM: BOX BOUNDS pp pp pp
0 10.7341
0 10.7341
0 10.7341
ITEM: ATOMS id type x y z fx fy fz 
1 1 0 0 0 9.99201e-16 1.27676e-15 5.55112e-16 
2 1 1.78901 1.78901 1.78901 -9.15934e-16 -1.35308e-15 -1.08941e-15 
3 1 0 0 3.57802 7.77156e-16 6.66134e-16 8.88178e-16 
7 1 0 3.57802 0 7.77156e-16 4.28477e-16 5.55112e-16 
9 1 0 3.57802 3.57802 1.22125e-15 9.04658e-16 9.99201e-16 
19 1 3.57802 0 0 4.57967e-16 6.66134e-16 8.88178e-16 
21 1 3.57802 0 3.57802 9.04658e-16 9.99201e-16 1.22125e-15 
25 1 3.57802 3.57802 0 1.10936e-15 1.16313e-15 8.88178e-16 
27 1 3.57802 3.57802 3.57802 8.59555e-16 8.58688e-16 1.30104e-15 
20 1 5.36703 1.78901 1.78901 -3.03577e-16 -1.2837e-15 -3.95517e-16 
37 1 7.15604 0 0 6.59195e-16 9.99201e-16 1.33227e-15 
39 1 7.15604 0 3.57802 1.11629e-15 9.99201e-16 1.22125e-15 
43 1 7.15604 3.57802 0 1.40339e-15 6.9042e-16 6.66134e-16 
45 1 7.15604 3.57802 3.57802 1.10242e-15 8.50015e-16 9.08995e-16 
38 1 8.94505 1.78901 1.78901 -1.11022e-15 -1.43635e-15 -1.44329e-15 
8 1 1.78901 5.36703 1.78901 -1.13104e-15 -1.47451e-16 -3.33067e-16 
13 1 0 7.15604 0 6.66134e-16 1.29931e-15 9.99201e-16 
15 1 0 7.15604 3.57802 7.77156e-16 9.54965e-16 8.88178e-16 
31 1 3.57802 7.15604 0 6.86083e-16 1.32012e-15 8.88178e-16 
33 1 3.57802 7.15604 3.57802 7.90167e-16 5.42968e-16 1.34961e-15 
26 1 5.36703 5.36703 1.78901 -1.03563e-15 -8.17055e-16 -6.31439e-16 
49 1 7.15604 7.15604 0 2.00361e-16 4.996e-16 6.66134e-16 
51 1 7.15604 7.15604 3.57802 1.99493e-17 -3.59088e-16 6.93889e-16 
44 1 8.94505 5.36703 1.78901 -2.10942e-15 -3.42608e-16 -8.88178e-16 
14 1 1.78901 8.94505 1.78901 -1.17267e-15 -8.55219e-16 -1.22125e-15 
32 1 5.36703 8.94505 1.78901 -5.9848e-17 -9.99201e-16 -9.99201e-16 
50 1 8.94505 8.94505 1.78901 -1.11022e-16 -5.55112e-17 -1.22125e-15 
4 1 1.78901 1.78901 5.36703 -6.73073e-16 -8.39606e-16 -2.22045e-16 
5 1 0 0 7.15604 9.99201e-16 8.32667e-16 1.33227e-15 
11 1 0 3.57802 7.15604 9.99201e-16 6.02816e-16 8.88178e-16 
23 1 3.57802 0 7.15604 3.82507e-16 6.66134e-16 8.88178e-16 
29 1 3.57802 3.57802 7.15604 5.57714e-16 5.01335e-16 1.17961e-15 
22 1 5.36703 1.78901 5.36703 -5.91541e-16 -9.08995e-16 -1.16053e-15 
41 1 7.15604 0 7.15604 2.6975e-16 1.33227e-15 3.33067e-16 
47 1 7.15604 3.57802 7.15604 3.89445e-16 9.36751e-17 -1.42247e-16 
40 1 8.94505 1.78901 5.36703 -1.88738e-15 -1.27329e-15 -5.55112e-16 
10 1 1.78901 5.36703 5.36703 -7.97973e-16 -1.03043e-15 -6.03684e-16 
17 1 0 7.15604 7.15604 8.88178e-16 -1.17094e-16 0 
35 1 3.57802 7.15604 7.15604 4.83988e-16 -1.65666e-16 -3.38271e-17 
28 1 5.36703 5.36703 5.36703 -7.71952e-16 -1.21864e-15 -1.2117e-15 
53 1 7.15604 7.15604 7.15604 -4.4062e-16 -7.19043e-16 -2.38524e-16 
46 1 8.94505 5.36703 5.36703 0 -5.72459e-17 -4.44089e-16 
16 1 1.78901 8.94505 5.36703 -1.06859e-15 -1.44416e-15 -1.14405e-15 
34 1 5.36703 8.94505 5.36703 -2.88831e-16 6.66134e-16 -9.99201e-16 
52 1 8.94505 8.94505 5.36703 2.22045e-16 -1.66533e-16 -4.44089e-16 
6 1 1.78901 1.78901 8.94505 -1.25594e-15 -1.47798e-15 -9.36751e-16 
24 1 5.36703 1.78901 8.94505 1.47451e-17 -1.40166e-15 -1.4589e-15 
42 1 8.94505 1.78901 8.94505 -2.22045e-16 -1.36956e-15 2.22045e-16 
12 1 1.78901 5.36703 8.94505 -1.45717e-15 -5.41234e-16 -1.63237e-15 
30 1 5.36703 5.36703 8.94505 -3.98986e-16 -1.20563e-16 -5.13478e-16 
48 1 8.94505 5.36703 8.94505 -3.33067e-16 -3.85976e-16 1.11022e-16 
18 1 1.78901 8.94505 8.94505 -1.48492e-15 -7.28584e-17 3.70363e-16 
36 1 5.36703 8.94505 8.94505 -2.15106e-16 3.33067e-16 3.33067e-16 
54 1 8.94505 8.94505 8.94505 5.55112e-16 7.77156e-16 3.33067e-16 
ITEM: TIMESTEP
4982
ITEM: NUMBER OF ATOMS
54
ITEM: BOX BOUNDS pp pp pp
0.450018 10.284
0.450018 10.284
0.450018 10.284
ITEM: ATOMS id type x y z fx fy fz 
1 1 0.733835 0.45189 0.62692 0.0642679 0.0833367 0.203229 
2 1 2.08255 2.14375 2.37823 -0.0124191 0.202974 0.0930265 
3 1 0.437441 0.390639 3.80439 0.0856599 -0.0966435 -0.117991 
7 1 0.712766 3.9067 0.368667 -0.0832207 -0.0179958 -0.105789 
9 1 0.725033 3.85643 3.97898 -0.0465031 0.0613342 0.0910414 
19 1 3.72763 0.494897 0.460935 0.0115334 -0.0228186 -0.00903022 
21 1 3.86788 0.129063 3.47344 -0.0400633 -0.0436197 -0.0603533 
25 1 3.49599 3.54892 0.146699 -0.149644 -0.00270019 0.0286176 
27 1 3.60507 4.05583 4.08663 0.0510644 0.147889 0.0732174 
20 1 4.92931 2.43093 2.31532 -0.410554 -0.113385 0.0836864 
37 1 6.77368 0.76308 0.669457 -0.0808209 0.0904887 -0.0140216 
39 1 6.87306 0.674397 3.42135 -0.0662182 0.0182933 -0.0492072 
43 1 6.87167 3.62493 0.599459 0.124021 0.0271585 0.849123 
45 1 6.8938 3.7267 3.77244 -0.0720071 0.0113271 -0.679546 
38 1 8.90641 2.22601 2.0806 0.190907 -0.0882718 -0.0198037 
8 1 2.30414 5.49863 2.05682 -0.104199 -0.0682324 0.00059019 
13 1 0.403119 6.88438 0.395205 -0.0331625 0.042448 -0.0109409 
15 1 0.306638 6.78048 3.52287 0.0629055 0.123245 0.0968336 
31 1 3.46262 7.23438 0.184807 -0.0685391 -0.0187202 -0.0108458 
33 1 3.94074 6.97678 4.01102 -0.026588 -0.0153826 -0.0149225 
26 1 5.06518 5.35133 1.84239 -0.18254 0.0759356 -0.127817 
49 1 7.3298 6.66291 0.633373 0.0302828 -0.110486 -0.0985054 
51 1 6.91439 6.72397 3.5367 0.0426254 -0.0916574 -0.0805372 
44 1 8.79103 5.01091 2.17131 0.502845 0.159233 0.00607419 
14 1 1.99051 8.45025 2.23523 0.0292534 -0.0918282 -0.0190495 
32 1 5.41946 8.36551 1.92864 0.110129 0.00600949 0.0876482 
50 1 8.74548 8.74113 2.07431 -0.167848 -0.00222512 -0.0650821 
4 1 2.35314 1.7692 5.43096 0.0610487 -0.0635291 -0.017563 
5 1 0.103045 0.345454 6.76177 0.0533551 0.277939 -0.0505745 
11 1 0.343838 3.52538 6.82993 0.0613266 -0.318646 -0.0271451 
23 1 4.05472 0.177652 7.24709 0.166812 -0.0434547 0.0311588 
29 1 3.646 3.84174 6.98049 -0.291162 -0.00477267 -0.0838095 
22 1 5.18347 1.94704 5.33226 0.0414635 -0.0165729 0.0388069 
41 1 7.11989 0.503648 7.00701 -0.0940189 -0.0155772 0.0816396 
47 1 7.15487 3.47002 6.81234 0.0780091 0.0229011 -0.251266 
40 1 8.69333 2.11379 5.01758 -0.229107 -0.140204 -0.240963 
10 1 1.84319 5.72212 5.64207 -0.0993847 0.0839124 0.0161078 
17 1 0.0793194 7.28484 7.25505 -0.0576625 0.0946486 0.0107182 
35 1 3.98571 7.17326 7.03002 0.0573854 -0.0758333 0.0587611 
28 1 5.6008 5.34405 5.64727 0.109612 0.0337072 -0.0679801 
53 1 7.0496 7.27405 7.08313 -0.0152433 0.0459585 0.0728104 
46 1 8.63353 5.55688 5.50067 -0.0203539 0.0239485 0.0453652 
16 1 2.05395 8.58987 5.32795 0.0867765 0.0377939 0.0114641 
34 1 5.62202 8.79602 5.23938 0.0383499 -0.102079 -0.213585 
52 1 8.44376 8.52066 5.00349 -0.0365494 0.0461379 -0.0375918 
6 1 1.91041 1.89619 8.34378 0.136165 -0.10233 0.118547 
24 1 5.39145 2.27776 8.40737 0.102261 0.189128 0.106759 
42 1 8.81372 2.09096 8.89794 -0.0525278 -0.00469225 0.0280566 
12 1 2.0311 5.50636 8.37098 -0.079025 0.0473718 -0.0100702 
30 1 5.48362 5.38159 8.6805 0.0910095 -0.189821 -0.0336028 
48 1 8.52347 5.11445 8.50397 0.00547232 -0.0738802 -0.000654647 
18 1 1.93284 8.80253 8.43238 0.0190205 0.0230641 -0.00149968 
36 1 5.67864 8.50958 8.97736 0.0277337 -0.160396 0.228388 
54 1 8.52779 8.92675 9.02769 0.0780655 0.119571 0.0580785 
