 
 16 atoms 
 
 1 atom types
 0.00000000000000000000 7.25354399999999976956 xlo xhi
 0.00000000000000000000 7.25354399999999976956 ylo yhi
 0.00000000000000000000 7.25354399999999976956 zlo zhi
 0.00000000000000000000 0.00000000000000000000 0.00000000000000000000 xy xz yz
 
 Atoms 
 
	1	1	0.00000000000000000000	0.00000000000000000000	0.00000000000000000000
	2	1	1.81338599999999994239	1.81338599999999994239	1.81338599999999994239
	3	1	0.00000000000000000000	0.00000000000000000000	3.62677199999999988478
	4	1	1.81338599999999994239	1.81338599999999994239	5.44015800000000027126
	5	1	0.00000000000000000000	3.62677199999999988478	0.00000000000000000000
	6	1	1.81338599999999994239	5.44015800000000027126	1.81338599999999994239
	7	1	0.00000000000000000000	3.62677199999999988478	3.62677199999999988478
	8	1	1.81338599999999994239	5.44015800000000027126	5.44015800000000027126
	9	1	3.62677199999999988478	0.00000000000000000000	0.00000000000000000000
	10	1	5.44015800000000027126	1.81338599999999994239	1.81338599999999994239
	11	1	3.62677199999999988478	0.00000000000000000000	3.62677199999999988478
	12	1	5.44015800000000027126	1.81338599999999994239	5.44015800000000027126
	13	1	3.62677199999999988478	3.62677199999999988478	0.00000000000000000000
	14	1	5.44015800000000027126	5.44015800000000027126	1.81338599999999994239
	15	1	3.62677199999999988478	3.62677199999999988478	3.62677199999999988478
	16	1	5.44015800000000027126	5.44015800000000027126	5.44015800000000027126
