 
 4096 atoms 
 
 1 atom types
 0.00000000000000000000 43.41673969176120095881 xlo xhi
 0.00000000000000000000 43.41673969176120095881 ylo yhi
 0.00000000000000000000 43.41673969176120095881 zlo zhi
 0.00000000000000000000 0.00000000000000000000 0.00000000000000000000 xy xz yz
 
 Atoms 
 
	1	1	0.00000000000000000000	0.00000000000000000000	0.00000000000000000000
	2	1	2.71354623073507505993	2.71354623073507505993	0.00000000000000000000
	3	1	2.71354623073507505993	0.00000000000000000000	2.71354623073507505993
	4	1	0.00000000000000000000	2.71354623073507505993	2.71354623073507505993
	5	1	1.35677311536753752996	1.35677311536753752996	1.35677311536753752996
	6	1	4.07031934610261281193	4.07031934610261281193	1.35677311536753752996
	7	1	4.07031934610261281193	1.35677311536753752996	4.07031934610261281193
	8	1	1.35677311536753752996	4.07031934610261281193	4.07031934610261281193
	9	1	0.00000000000000000000	0.00000000000000000000	5.42709246147015011985
	10	1	2.71354623073507505993	2.71354623073507505993	5.42709246147015011985
	11	1	2.71354623073507505993	0.00000000000000000000	8.14063869220522562387
	12	1	0.00000000000000000000	2.71354623073507505993	8.14063869220522562387
	13	1	1.35677311536753752996	1.35677311536753752996	6.78386557683768742777
	14	1	4.07031934610261281193	4.07031934610261281193	6.78386557683768742777
	15	1	4.07031934610261281193	1.35677311536753752996	9.49741180757276381996
	16	1	1.35677311536753752996	4.07031934610261281193	9.49741180757276381996
	17	1	0.00000000000000000000	0.00000000000000000000	10.85418492294030023970
	18	1	2.71354623073507505993	2.71354623073507505993	10.85418492294030023970
	19	1	2.71354623073507505993	0.00000000000000000000	13.56773115367537485554
	20	1	0.00000000000000000000	2.71354623073507505993	13.56773115367537485554
	21	1	1.35677311536753752996	1.35677311536753752996	12.21095803830783843580
	22	1	4.07031934610261281193	4.07031934610261281193	12.21095803830783843580
	23	1	4.07031934610261281193	1.35677311536753752996	14.92450426904291305163
	24	1	1.35677311536753752996	4.07031934610261281193	14.92450426904291305163
	25	1	0.00000000000000000000	0.00000000000000000000	16.28127738441045124773
	26	1	2.71354623073507505993	2.71354623073507505993	16.28127738441045124773
	27	1	2.71354623073507505993	0.00000000000000000000	18.99482361514552763992
	28	1	0.00000000000000000000	2.71354623073507505993	18.99482361514552763992
	29	1	1.35677311536753752996	1.35677311536753752996	17.63805049977798944383
	30	1	4.07031934610261281193	4.07031934610261281193	17.63805049977798944383
	31	1	4.07031934610261281193	1.35677311536753752996	20.35159673051306583602
	32	1	1.35677311536753752996	4.07031934610261281193	20.35159673051306583602
	33	1	0.00000000000000000000	0.00000000000000000000	21.70836984588060047940
	34	1	2.71354623073507505993	2.71354623073507505993	21.70836984588060047940
	35	1	2.71354623073507505993	0.00000000000000000000	24.42191607661567687160
	36	1	0.00000000000000000000	2.71354623073507505993	24.42191607661567687160
	37	1	1.35677311536753752996	1.35677311536753752996	23.06514296124813867550
	38	1	4.07031934610261281193	4.07031934610261281193	23.06514296124813867550
	39	1	4.07031934610261281193	1.35677311536753752996	25.77868919198321151498
	40	1	1.35677311536753752996	4.07031934610261281193	25.77868919198321151498
	41	1	0.00000000000000000000	0.00000000000000000000	27.13546230735074971108
	42	1	2.71354623073507505993	2.71354623073507505993	27.13546230735074971108
	43	1	2.71354623073507505993	0.00000000000000000000	29.84900853808582610327
	44	1	0.00000000000000000000	2.71354623073507505993	29.84900853808582610327
	45	1	1.35677311536753752996	1.35677311536753752996	28.49223542271828790717
	46	1	4.07031934610261281193	4.07031934610261281193	28.49223542271828790717
	47	1	4.07031934610261281193	1.35677311536753752996	31.20578165345336429937
	48	1	1.35677311536753752996	4.07031934610261281193	31.20578165345336429937
	49	1	0.00000000000000000000	0.00000000000000000000	32.56255476882090249546
	50	1	2.71354623073507505993	2.71354623073507505993	32.56255476882090249546
	51	1	2.71354623073507505993	0.00000000000000000000	35.27610099955597888766
	52	1	0.00000000000000000000	2.71354623073507505993	35.27610099955597888766
	53	1	1.35677311536753752996	1.35677311536753752996	33.91932788418844069156
	54	1	4.07031934610261281193	4.07031934610261281193	33.91932788418844069156
	55	1	4.07031934610261281193	1.35677311536753752996	36.63287411492351708375
	56	1	1.35677311536753752996	4.07031934610261281193	36.63287411492351708375
	57	1	0.00000000000000000000	0.00000000000000000000	37.98964723029104817442
	58	1	2.71354623073507505993	2.71354623073507505993	37.98964723029104817442
	59	1	2.71354623073507505993	0.00000000000000000000	40.70319346102612456662
	60	1	0.00000000000000000000	2.71354623073507505993	40.70319346102612456662
	61	1	1.35677311536753752996	1.35677311536753752996	39.34642034565858637052
	62	1	4.07031934610261281193	4.07031934610261281193	39.34642034565858637052
	63	1	4.07031934610261281193	1.35677311536753752996	42.05996657639366276271
	64	1	1.35677311536753752996	4.07031934610261281193	42.05996657639366276271
	65	1	0.00000000000000000000	5.42709246147015011985	0.00000000000000000000
	66	1	2.71354623073507505993	8.14063869220522562387	0.00000000000000000000
	67	1	2.71354623073507505993	5.42709246147015011985	2.71354623073507505993
	68	1	0.00000000000000000000	8.14063869220522562387	2.71354623073507505993
	69	1	1.35677311536753752996	6.78386557683768742777	1.35677311536753752996
	70	1	4.07031934610261281193	9.49741180757276381996	1.35677311536753752996
	71	1	4.07031934610261281193	6.78386557683768742777	4.07031934610261281193
	72	1	1.35677311536753752996	9.49741180757276381996	4.07031934610261281193
	73	1	0.00000000000000000000	5.42709246147015011985	5.42709246147015011985
	74	1	2.71354623073507505993	8.14063869220522562387	5.42709246147015011985
	75	1	2.71354623073507505993	5.42709246147015011985	8.14063869220522562387
	76	1	0.00000000000000000000	8.14063869220522562387	8.14063869220522562387
	77	1	1.35677311536753752996	6.78386557683768742777	6.78386557683768742777
	78	1	4.07031934610261281193	9.49741180757276381996	6.78386557683768742777
	79	1	4.07031934610261281193	6.78386557683768742777	9.49741180757276381996
	80	1	1.35677311536753752996	9.49741180757276381996	9.49741180757276381996
	81	1	0.00000000000000000000	5.42709246147015011985	10.85418492294030023970
	82	1	2.71354623073507505993	8.14063869220522562387	10.85418492294030023970
	83	1	2.71354623073507505993	5.42709246147015011985	13.56773115367537485554
	84	1	0.00000000000000000000	8.14063869220522562387	13.56773115367537485554
	85	1	1.35677311536753752996	6.78386557683768742777	12.21095803830783843580
	86	1	4.07031934610261281193	9.49741180757276381996	12.21095803830783843580
	87	1	4.07031934610261281193	6.78386557683768742777	14.92450426904291305163
	88	1	1.35677311536753752996	9.49741180757276381996	14.92450426904291305163
	89	1	0.00000000000000000000	5.42709246147015011985	16.28127738441045124773
	90	1	2.71354623073507505993	8.14063869220522562387	16.28127738441045124773
	91	1	2.71354623073507505993	5.42709246147015011985	18.99482361514552763992
	92	1	0.00000000000000000000	8.14063869220522562387	18.99482361514552763992
	93	1	1.35677311536753752996	6.78386557683768742777	17.63805049977798944383
	94	1	4.07031934610261281193	9.49741180757276381996	17.63805049977798944383
	95	1	4.07031934610261281193	6.78386557683768742777	20.35159673051306583602
	96	1	1.35677311536753752996	9.49741180757276381996	20.35159673051306583602
	97	1	0.00000000000000000000	5.42709246147015011985	21.70836984588060047940
	98	1	2.71354623073507505993	8.14063869220522562387	21.70836984588060047940
	99	1	2.71354623073507505993	5.42709246147015011985	24.42191607661567687160
	100	1	0.00000000000000000000	8.14063869220522562387	24.42191607661567687160
	101	1	1.35677311536753752996	6.78386557683768742777	23.06514296124813867550
	102	1	4.07031934610261281193	9.49741180757276381996	23.06514296124813867550
	103	1	4.07031934610261281193	6.78386557683768742777	25.77868919198321151498
	104	1	1.35677311536753752996	9.49741180757276381996	25.77868919198321151498
	105	1	0.00000000000000000000	5.42709246147015011985	27.13546230735074971108
	106	1	2.71354623073507505993	8.14063869220522562387	27.13546230735074971108
	107	1	2.71354623073507505993	5.42709246147015011985	29.84900853808582610327
	108	1	0.00000000000000000000	8.14063869220522562387	29.84900853808582610327
	109	1	1.35677311536753752996	6.78386557683768742777	28.49223542271828790717
	110	1	4.07031934610261281193	9.49741180757276381996	28.49223542271828790717
	111	1	4.07031934610261281193	6.78386557683768742777	31.20578165345336429937
	112	1	1.35677311536753752996	9.49741180757276381996	31.20578165345336429937
	113	1	0.00000000000000000000	5.42709246147015011985	32.56255476882090249546
	114	1	2.71354623073507505993	8.14063869220522562387	32.56255476882090249546
	115	1	2.71354623073507505993	5.42709246147015011985	35.27610099955597888766
	116	1	0.00000000000000000000	8.14063869220522562387	35.27610099955597888766
	117	1	1.35677311536753752996	6.78386557683768742777	33.91932788418844069156
	118	1	4.07031934610261281193	9.49741180757276381996	33.91932788418844069156
	119	1	4.07031934610261281193	6.78386557683768742777	36.63287411492351708375
	120	1	1.35677311536753752996	9.49741180757276381996	36.63287411492351708375
	121	1	0.00000000000000000000	5.42709246147015011985	37.98964723029104817442
	122	1	2.71354623073507505993	8.14063869220522562387	37.98964723029104817442
	123	1	2.71354623073507505993	5.42709246147015011985	40.70319346102612456662
	124	1	0.00000000000000000000	8.14063869220522562387	40.70319346102612456662
	125	1	1.35677311536753752996	6.78386557683768742777	39.34642034565858637052
	126	1	4.07031934610261281193	9.49741180757276381996	39.34642034565858637052
	127	1	4.07031934610261281193	6.78386557683768742777	42.05996657639366276271
	128	1	1.35677311536753752996	9.49741180757276381996	42.05996657639366276271
	129	1	0.00000000000000000000	10.85418492294030023970	0.00000000000000000000
	130	1	2.71354623073507505993	13.56773115367537485554	0.00000000000000000000
	131	1	2.71354623073507505993	10.85418492294030023970	2.71354623073507505993
	132	1	0.00000000000000000000	13.56773115367537485554	2.71354623073507505993
	133	1	1.35677311536753752996	12.21095803830783843580	1.35677311536753752996
	134	1	4.07031934610261281193	14.92450426904291305163	1.35677311536753752996
	135	1	4.07031934610261281193	12.21095803830783843580	4.07031934610261281193
	136	1	1.35677311536753752996	14.92450426904291305163	4.07031934610261281193
	137	1	0.00000000000000000000	10.85418492294030023970	5.42709246147015011985
	138	1	2.71354623073507505993	13.56773115367537485554	5.42709246147015011985
	139	1	2.71354623073507505993	10.85418492294030023970	8.14063869220522562387
	140	1	0.00000000000000000000	13.56773115367537485554	8.14063869220522562387
	141	1	1.35677311536753752996	12.21095803830783843580	6.78386557683768742777
	142	1	4.07031934610261281193	14.92450426904291305163	6.78386557683768742777
	143	1	4.07031934610261281193	12.21095803830783843580	9.49741180757276381996
	144	1	1.35677311536753752996	14.92450426904291305163	9.49741180757276381996
	145	1	0.00000000000000000000	10.85418492294030023970	10.85418492294030023970
	146	1	2.71354623073507505993	13.56773115367537485554	10.85418492294030023970
	147	1	2.71354623073507505993	10.85418492294030023970	13.56773115367537485554
	148	1	0.00000000000000000000	13.56773115367537485554	13.56773115367537485554
	149	1	1.35677311536753752996	12.21095803830783843580	12.21095803830783843580
	150	1	4.07031934610261281193	14.92450426904291305163	12.21095803830783843580
	151	1	4.07031934610261281193	12.21095803830783843580	14.92450426904291305163
	152	1	1.35677311536753752996	14.92450426904291305163	14.92450426904291305163
	153	1	0.00000000000000000000	10.85418492294030023970	16.28127738441045124773
	154	1	2.71354623073507505993	13.56773115367537485554	16.28127738441045124773
	155	1	2.71354623073507505993	10.85418492294030023970	18.99482361514552763992
	156	1	0.00000000000000000000	13.56773115367537485554	18.99482361514552763992
	157	1	1.35677311536753752996	12.21095803830783843580	17.63805049977798944383
	158	1	4.07031934610261281193	14.92450426904291305163	17.63805049977798944383
	159	1	4.07031934610261281193	12.21095803830783843580	20.35159673051306583602
	160	1	1.35677311536753752996	14.92450426904291305163	20.35159673051306583602
	161	1	0.00000000000000000000	10.85418492294030023970	21.70836984588060047940
	162	1	2.71354623073507505993	13.56773115367537485554	21.70836984588060047940
	163	1	2.71354623073507505993	10.85418492294030023970	24.42191607661567687160
	164	1	0.00000000000000000000	13.56773115367537485554	24.42191607661567687160
	165	1	1.35677311536753752996	12.21095803830783843580	23.06514296124813867550
	166	1	4.07031934610261281193	14.92450426904291305163	23.06514296124813867550
	167	1	4.07031934610261281193	12.21095803830783843580	25.77868919198321151498
	168	1	1.35677311536753752996	14.92450426904291305163	25.77868919198321151498
	169	1	0.00000000000000000000	10.85418492294030023970	27.13546230735074971108
	170	1	2.71354623073507505993	13.56773115367537485554	27.13546230735074971108
	171	1	2.71354623073507505993	10.85418492294030023970	29.84900853808582610327
	172	1	0.00000000000000000000	13.56773115367537485554	29.84900853808582610327
	173	1	1.35677311536753752996	12.21095803830783843580	28.49223542271828790717
	174	1	4.07031934610261281193	14.92450426904291305163	28.49223542271828790717
	175	1	4.07031934610261281193	12.21095803830783843580	31.20578165345336429937
	176	1	1.35677311536753752996	14.92450426904291305163	31.20578165345336429937
	177	1	0.00000000000000000000	10.85418492294030023970	32.56255476882090249546
	178	1	2.71354623073507505993	13.56773115367537485554	32.56255476882090249546
	179	1	2.71354623073507505993	10.85418492294030023970	35.27610099955597888766
	180	1	0.00000000000000000000	13.56773115367537485554	35.27610099955597888766
	181	1	1.35677311536753752996	12.21095803830783843580	33.91932788418844069156
	182	1	4.07031934610261281193	14.92450426904291305163	33.91932788418844069156
	183	1	4.07031934610261281193	12.21095803830783843580	36.63287411492351708375
	184	1	1.35677311536753752996	14.92450426904291305163	36.63287411492351708375
	185	1	0.00000000000000000000	10.85418492294030023970	37.98964723029104817442
	186	1	2.71354623073507505993	13.56773115367537485554	37.98964723029104817442
	187	1	2.71354623073507505993	10.85418492294030023970	40.70319346102612456662
	188	1	0.00000000000000000000	13.56773115367537485554	40.70319346102612456662
	189	1	1.35677311536753752996	12.21095803830783843580	39.34642034565858637052
	190	1	4.07031934610261281193	14.92450426904291305163	39.34642034565858637052
	191	1	4.07031934610261281193	12.21095803830783843580	42.05996657639366276271
	192	1	1.35677311536753752996	14.92450426904291305163	42.05996657639366276271
	193	1	0.00000000000000000000	16.28127738441045124773	0.00000000000000000000
	194	1	2.71354623073507505993	18.99482361514552763992	0.00000000000000000000
	195	1	2.71354623073507505993	16.28127738441045124773	2.71354623073507505993
	196	1	0.00000000000000000000	18.99482361514552763992	2.71354623073507505993
	197	1	1.35677311536753752996	17.63805049977798944383	1.35677311536753752996
	198	1	4.07031934610261281193	20.35159673051306583602	1.35677311536753752996
	199	1	4.07031934610261281193	17.63805049977798944383	4.07031934610261281193
	200	1	1.35677311536753752996	20.35159673051306583602	4.07031934610261281193
	201	1	0.00000000000000000000	16.28127738441045124773	5.42709246147015011985
	202	1	2.71354623073507505993	18.99482361514552763992	5.42709246147015011985
	203	1	2.71354623073507505993	16.28127738441045124773	8.14063869220522562387
	204	1	0.00000000000000000000	18.99482361514552763992	8.14063869220522562387
	205	1	1.35677311536753752996	17.63805049977798944383	6.78386557683768742777
	206	1	4.07031934610261281193	20.35159673051306583602	6.78386557683768742777
	207	1	4.07031934610261281193	17.63805049977798944383	9.49741180757276381996
	208	1	1.35677311536753752996	20.35159673051306583602	9.49741180757276381996
	209	1	0.00000000000000000000	16.28127738441045124773	10.85418492294030023970
	210	1	2.71354623073507505993	18.99482361514552763992	10.85418492294030023970
	211	1	2.71354623073507505993	16.28127738441045124773	13.56773115367537485554
	212	1	0.00000000000000000000	18.99482361514552763992	13.56773115367537485554
	213	1	1.35677311536753752996	17.63805049977798944383	12.21095803830783843580
	214	1	4.07031934610261281193	20.35159673051306583602	12.21095803830783843580
	215	1	4.07031934610261281193	17.63805049977798944383	14.92450426904291305163
	216	1	1.35677311536753752996	20.35159673051306583602	14.92450426904291305163
	217	1	0.00000000000000000000	16.28127738441045124773	16.28127738441045124773
	218	1	2.71354623073507505993	18.99482361514552763992	16.28127738441045124773
	219	1	2.71354623073507505993	16.28127738441045124773	18.99482361514552763992
	220	1	0.00000000000000000000	18.99482361514552763992	18.99482361514552763992
	221	1	1.35677311536753752996	17.63805049977798944383	17.63805049977798944383
	222	1	4.07031934610261281193	20.35159673051306583602	17.63805049977798944383
	223	1	4.07031934610261281193	17.63805049977798944383	20.35159673051306583602
	224	1	1.35677311536753752996	20.35159673051306583602	20.35159673051306583602
	225	1	0.00000000000000000000	16.28127738441045124773	21.70836984588060047940
	226	1	2.71354623073507505993	18.99482361514552763992	21.70836984588060047940
	227	1	2.71354623073507505993	16.28127738441045124773	24.42191607661567687160
	228	1	0.00000000000000000000	18.99482361514552763992	24.42191607661567687160
	229	1	1.35677311536753752996	17.63805049977798944383	23.06514296124813867550
	230	1	4.07031934610261281193	20.35159673051306583602	23.06514296124813867550
	231	1	4.07031934610261281193	17.63805049977798944383	25.77868919198321151498
	232	1	1.35677311536753752996	20.35159673051306583602	25.77868919198321151498
	233	1	0.00000000000000000000	16.28127738441045124773	27.13546230735074971108
	234	1	2.71354623073507505993	18.99482361514552763992	27.13546230735074971108
	235	1	2.71354623073507505993	16.28127738441045124773	29.84900853808582610327
	236	1	0.00000000000000000000	18.99482361514552763992	29.84900853808582610327
	237	1	1.35677311536753752996	17.63805049977798944383	28.49223542271828790717
	238	1	4.07031934610261281193	20.35159673051306583602	28.49223542271828790717
	239	1	4.07031934610261281193	17.63805049977798944383	31.20578165345336429937
	240	1	1.35677311536753752996	20.35159673051306583602	31.20578165345336429937
	241	1	0.00000000000000000000	16.28127738441045124773	32.56255476882090249546
	242	1	2.71354623073507505993	18.99482361514552763992	32.56255476882090249546
	243	1	2.71354623073507505993	16.28127738441045124773	35.27610099955597888766
	244	1	0.00000000000000000000	18.99482361514552763992	35.27610099955597888766
	245	1	1.35677311536753752996	17.63805049977798944383	33.91932788418844069156
	246	1	4.07031934610261281193	20.35159673051306583602	33.91932788418844069156
	247	1	4.07031934610261281193	17.63805049977798944383	36.63287411492351708375
	248	1	1.35677311536753752996	20.35159673051306583602	36.63287411492351708375
	249	1	0.00000000000000000000	16.28127738441045124773	37.98964723029104817442
	250	1	2.71354623073507505993	18.99482361514552763992	37.98964723029104817442
	251	1	2.71354623073507505993	16.28127738441045124773	40.70319346102612456662
	252	1	0.00000000000000000000	18.99482361514552763992	40.70319346102612456662
	253	1	1.35677311536753752996	17.63805049977798944383	39.34642034565858637052
	254	1	4.07031934610261281193	20.35159673051306583602	39.34642034565858637052
	255	1	4.07031934610261281193	17.63805049977798944383	42.05996657639366276271
	256	1	1.35677311536753752996	20.35159673051306583602	42.05996657639366276271
	257	1	0.00000000000000000000	21.70836984588060047940	0.00000000000000000000
	258	1	2.71354623073507505993	24.42191607661567687160	0.00000000000000000000
	259	1	2.71354623073507505993	21.70836984588060047940	2.71354623073507505993
	260	1	0.00000000000000000000	24.42191607661567687160	2.71354623073507505993
	261	1	1.35677311536753752996	23.06514296124813867550	1.35677311536753752996
	262	1	4.07031934610261281193	25.77868919198321151498	1.35677311536753752996
	263	1	4.07031934610261281193	23.06514296124813867550	4.07031934610261281193
	264	1	1.35677311536753752996	25.77868919198321151498	4.07031934610261281193
	265	1	0.00000000000000000000	21.70836984588060047940	5.42709246147015011985
	266	1	2.71354623073507505993	24.42191607661567687160	5.42709246147015011985
	267	1	2.71354623073507505993	21.70836984588060047940	8.14063869220522562387
	268	1	0.00000000000000000000	24.42191607661567687160	8.14063869220522562387
	269	1	1.35677311536753752996	23.06514296124813867550	6.78386557683768742777
	270	1	4.07031934610261281193	25.77868919198321151498	6.78386557683768742777
	271	1	4.07031934610261281193	23.06514296124813867550	9.49741180757276381996
	272	1	1.35677311536753752996	25.77868919198321151498	9.49741180757276381996
	273	1	0.00000000000000000000	21.70836984588060047940	10.85418492294030023970
	274	1	2.71354623073507505993	24.42191607661567687160	10.85418492294030023970
	275	1	2.71354623073507505993	21.70836984588060047940	13.56773115367537485554
	276	1	0.00000000000000000000	24.42191607661567687160	13.56773115367537485554
	277	1	1.35677311536753752996	23.06514296124813867550	12.21095803830783843580
	278	1	4.07031934610261281193	25.77868919198321151498	12.21095803830783843580
	279	1	4.07031934610261281193	23.06514296124813867550	14.92450426904291305163
	280	1	1.35677311536753752996	25.77868919198321151498	14.92450426904291305163
	281	1	0.00000000000000000000	21.70836984588060047940	16.28127738441045124773
	282	1	2.71354623073507505993	24.42191607661567687160	16.28127738441045124773
	283	1	2.71354623073507505993	21.70836984588060047940	18.99482361514552763992
	284	1	0.00000000000000000000	24.42191607661567687160	18.99482361514552763992
	285	1	1.35677311536753752996	23.06514296124813867550	17.63805049977798944383
	286	1	4.07031934610261281193	25.77868919198321151498	17.63805049977798944383
	287	1	4.07031934610261281193	23.06514296124813867550	20.35159673051306583602
	288	1	1.35677311536753752996	25.77868919198321151498	20.35159673051306583602
	289	1	0.00000000000000000000	21.70836984588060047940	21.70836984588060047940
	290	1	2.71354623073507505993	24.42191607661567687160	21.70836984588060047940
	291	1	2.71354623073507505993	21.70836984588060047940	24.42191607661567687160
	292	1	0.00000000000000000000	24.42191607661567687160	24.42191607661567687160
	293	1	1.35677311536753752996	23.06514296124813867550	23.06514296124813867550
	294	1	4.07031934610261281193	25.77868919198321151498	23.06514296124813867550
	295	1	4.07031934610261281193	23.06514296124813867550	25.77868919198321151498
	296	1	1.35677311536753752996	25.77868919198321151498	25.77868919198321151498
	297	1	0.00000000000000000000	21.70836984588060047940	27.13546230735074971108
	298	1	2.71354623073507505993	24.42191607661567687160	27.13546230735074971108
	299	1	2.71354623073507505993	21.70836984588060047940	29.84900853808582610327
	300	1	0.00000000000000000000	24.42191607661567687160	29.84900853808582610327
	301	1	1.35677311536753752996	23.06514296124813867550	28.49223542271828790717
	302	1	4.07031934610261281193	25.77868919198321151498	28.49223542271828790717
	303	1	4.07031934610261281193	23.06514296124813867550	31.20578165345336429937
	304	1	1.35677311536753752996	25.77868919198321151498	31.20578165345336429937
	305	1	0.00000000000000000000	21.70836984588060047940	32.56255476882090249546
	306	1	2.71354623073507505993	24.42191607661567687160	32.56255476882090249546
	307	1	2.71354623073507505993	21.70836984588060047940	35.27610099955597888766
	308	1	0.00000000000000000000	24.42191607661567687160	35.27610099955597888766
	309	1	1.35677311536753752996	23.06514296124813867550	33.91932788418844069156
	310	1	4.07031934610261281193	25.77868919198321151498	33.91932788418844069156
	311	1	4.07031934610261281193	23.06514296124813867550	36.63287411492351708375
	312	1	1.35677311536753752996	25.77868919198321151498	36.63287411492351708375
	313	1	0.00000000000000000000	21.70836984588060047940	37.98964723029104817442
	314	1	2.71354623073507505993	24.42191607661567687160	37.98964723029104817442
	315	1	2.71354623073507505993	21.70836984588060047940	40.70319346102612456662
	316	1	0.00000000000000000000	24.42191607661567687160	40.70319346102612456662
	317	1	1.35677311536753752996	23.06514296124813867550	39.34642034565858637052
	318	1	4.07031934610261281193	25.77868919198321151498	39.34642034565858637052
	319	1	4.07031934610261281193	23.06514296124813867550	42.05996657639366276271
	320	1	1.35677311536753752996	25.77868919198321151498	42.05996657639366276271
	321	1	0.00000000000000000000	27.13546230735074971108	0.00000000000000000000
	322	1	2.71354623073507505993	29.84900853808582610327	0.00000000000000000000
	323	1	2.71354623073507505993	27.13546230735074971108	2.71354623073507505993
	324	1	0.00000000000000000000	29.84900853808582610327	2.71354623073507505993
	325	1	1.35677311536753752996	28.49223542271828790717	1.35677311536753752996
	326	1	4.07031934610261281193	31.20578165345336429937	1.35677311536753752996
	327	1	4.07031934610261281193	28.49223542271828790717	4.07031934610261281193
	328	1	1.35677311536753752996	31.20578165345336429937	4.07031934610261281193
	329	1	0.00000000000000000000	27.13546230735074971108	5.42709246147015011985
	330	1	2.71354623073507505993	29.84900853808582610327	5.42709246147015011985
	331	1	2.71354623073507505993	27.13546230735074971108	8.14063869220522562387
	332	1	0.00000000000000000000	29.84900853808582610327	8.14063869220522562387
	333	1	1.35677311536753752996	28.49223542271828790717	6.78386557683768742777
	334	1	4.07031934610261281193	31.20578165345336429937	6.78386557683768742777
	335	1	4.07031934610261281193	28.49223542271828790717	9.49741180757276381996
	336	1	1.35677311536753752996	31.20578165345336429937	9.49741180757276381996
	337	1	0.00000000000000000000	27.13546230735074971108	10.85418492294030023970
	338	1	2.71354623073507505993	29.84900853808582610327	10.85418492294030023970
	339	1	2.71354623073507505993	27.13546230735074971108	13.56773115367537485554
	340	1	0.00000000000000000000	29.84900853808582610327	13.56773115367537485554
	341	1	1.35677311536753752996	28.49223542271828790717	12.21095803830783843580
	342	1	4.07031934610261281193	31.20578165345336429937	12.21095803830783843580
	343	1	4.07031934610261281193	28.49223542271828790717	14.92450426904291305163
	344	1	1.35677311536753752996	31.20578165345336429937	14.92450426904291305163
	345	1	0.00000000000000000000	27.13546230735074971108	16.28127738441045124773
	346	1	2.71354623073507505993	29.84900853808582610327	16.28127738441045124773
	347	1	2.71354623073507505993	27.13546230735074971108	18.99482361514552763992
	348	1	0.00000000000000000000	29.84900853808582610327	18.99482361514552763992
	349	1	1.35677311536753752996	28.49223542271828790717	17.63805049977798944383
	350	1	4.07031934610261281193	31.20578165345336429937	17.63805049977798944383
	351	1	4.07031934610261281193	28.49223542271828790717	20.35159673051306583602
	352	1	1.35677311536753752996	31.20578165345336429937	20.35159673051306583602
	353	1	0.00000000000000000000	27.13546230735074971108	21.70836984588060047940
	354	1	2.71354623073507505993	29.84900853808582610327	21.70836984588060047940
	355	1	2.71354623073507505993	27.13546230735074971108	24.42191607661567687160
	356	1	0.00000000000000000000	29.84900853808582610327	24.42191607661567687160
	357	1	1.35677311536753752996	28.49223542271828790717	23.06514296124813867550
	358	1	4.07031934610261281193	31.20578165345336429937	23.06514296124813867550
	359	1	4.07031934610261281193	28.49223542271828790717	25.77868919198321151498
	360	1	1.35677311536753752996	31.20578165345336429937	25.77868919198321151498
	361	1	0.00000000000000000000	27.13546230735074971108	27.13546230735074971108
	362	1	2.71354623073507505993	29.84900853808582610327	27.13546230735074971108
	363	1	2.71354623073507505993	27.13546230735074971108	29.84900853808582610327
	364	1	0.00000000000000000000	29.84900853808582610327	29.84900853808582610327
	365	1	1.35677311536753752996	28.49223542271828790717	28.49223542271828790717
	366	1	4.07031934610261281193	31.20578165345336429937	28.49223542271828790717
	367	1	4.07031934610261281193	28.49223542271828790717	31.20578165345336429937
	368	1	1.35677311536753752996	31.20578165345336429937	31.20578165345336429937
	369	1	0.00000000000000000000	27.13546230735074971108	32.56255476882090249546
	370	1	2.71354623073507505993	29.84900853808582610327	32.56255476882090249546
	371	1	2.71354623073507505993	27.13546230735074971108	35.27610099955597888766
	372	1	0.00000000000000000000	29.84900853808582610327	35.27610099955597888766
	373	1	1.35677311536753752996	28.49223542271828790717	33.91932788418844069156
	374	1	4.07031934610261281193	31.20578165345336429937	33.91932788418844069156
	375	1	4.07031934610261281193	28.49223542271828790717	36.63287411492351708375
	376	1	1.35677311536753752996	31.20578165345336429937	36.63287411492351708375
	377	1	0.00000000000000000000	27.13546230735074971108	37.98964723029104817442
	378	1	2.71354623073507505993	29.84900853808582610327	37.98964723029104817442
	379	1	2.71354623073507505993	27.13546230735074971108	40.70319346102612456662
	380	1	0.00000000000000000000	29.84900853808582610327	40.70319346102612456662
	381	1	1.35677311536753752996	28.49223542271828790717	39.34642034565858637052
	382	1	4.07031934610261281193	31.20578165345336429937	39.34642034565858637052
	383	1	4.07031934610261281193	28.49223542271828790717	42.05996657639366276271
	384	1	1.35677311536753752996	31.20578165345336429937	42.05996657639366276271
	385	1	0.00000000000000000000	32.56255476882090249546	0.00000000000000000000