 
 511 atoms 
 
 1 atom types
 0.00000000000000000000 21.70837109643942852699 xlo xhi
 0.00000000000000000000 21.70837109643942852699 ylo yhi
 0.00000000000000000000 21.70837109643942852699 zlo zhi
 
 Atoms 
 
	1	1	0.00933782824546483536	0.00636428598609683951	0.00636428598609683951
	2	1	2.75342811117180596980	2.72237812100837484053	0.03988174922802016631
	3	1	2.75342811117180596980	0.03988174922802016631	2.72237812100837484053
	4	1	0.00650190597518569748	2.71797377298933895418	2.71797377298933895418
	5	1	1.37156417802996455357	1.36522098313897743971	1.36522098313897743971
	6	1	4.14179680086748014389	4.05558825181099269486	1.42825053936796275700
	7	1	4.14179680086748014389	1.42825053936796275700	4.05558825181099269486
	8	1	1.37185889924285797647	4.07031944247140664572	4.07031944247140664572
	9	1	0.00741946001587754592	0.00546965367579001389	5.42636494157133775218
	10	1	2.73496088391603286993	2.71612148058977442844	5.42451760524173565159
	11	1	2.71653401681244632826	0.00298765486866517079	8.13765123007414636902
	12	1	0.00741946001587754592	2.71427414426016877513	8.13516923126702273805
	13	1	1.36711797772141907537	1.36210823930526458980	6.77853054519327979932
	14	1	4.14179680086748014389	4.08505063313182059659	6.71238824513058141008
	15	1	4.07565450080477997830	1.36210823930526458980	9.48706696783221836711
	16	1	1.38243910117519086533	4.07005277127144449167	9.47174584437844657714
	17	1	0.00151866286927048442	0.00131815968871652951	10.85266688535044643515
	18	1	2.71901601561957528830	2.71427414426016877513	10.84676608820383769682
	19	1	2.71566897730970424618	0.00212261536592097582	13.56508731443679671713
	20	1	0.00256717119430901943	2.71422497961291542268	13.56561447570393319495
	21	1	1.36004615827241748249	1.35927576682501127792	12.20646201641446459973
	22	1	4.07285606855153048400	4.07045968923552958785	12.20731829843595406260
	23	1	4.07129954504947022542	1.35775328354995328262	14.92448049358611683601
	24	1	1.35871696164747235436	4.07031944247140664572	14.92450408669223449465
	25	1	0.00317283275569207228	0.00270276835747478277	16.28445441001062476971
	26	1	2.71601124407893612656	2.71481536344019591667	16.28282614464620436934
	27	1	2.71991064792988046506	0.00636428598609683951	19.00416135740910661411
	28	1	0.01629428241873204578	2.71711631089013039286	19.01111781158238045464
	29	1	1.36175428138695697733	1.35974700307671092503	17.64427160327410604168
	30	1	4.07285606855153048400	4.07017919570728370360	17.64169067850313155077
	31	1	4.07876724463849438251	1.36522098313897743971	20.36638730541637443139
	32	1	1.38243910117519086533	4.07058611367136791159	20.37726222856160163133
	33	1	0.00741946001587754592	5.42636494157133775218	0.00546965367579001389
	34	1	2.71653401681244632826	8.13765123007414636902	0.00298765486866517079
	35	1	2.73496088391603286993	5.42451760524173565159	2.71612148058977442844
	36	1	0.00741946001587754592	8.13516923126702273805	2.71427414426016877513
	37	1	1.36711797772141907537	6.77853054519327979932	1.36210823930526458980
	38	1	4.07565450080477997830	9.48706696783221836711	1.36210823930526458980
	39	1	4.14179680086748014389	6.71238824513058141008	4.08505063313182059659
	40	1	1.38243910117519086533	9.47174584437844657714	4.07005277127144449167
	41	1	0.00650190597518569748	5.42266531284216757314	5.42266531284216757314
	42	1	2.75342811117180596980	8.10075713571479560926	5.41826096482313079861
	43	1	2.75342811117180596980	5.41826096482313079861	8.10075713571479560926
	44	1	0.00933782824546483536	8.13427459895671667311	8.13427459895671667311
	45	1	1.37156417802996455357	6.77541780135956539510	6.77541780135956539510
	46	1	4.07876724463849438251	9.48262076752367377708	6.77541780135956539510
	47	1	4.07876724463849438251	6.77541780135956539510	9.48262076752367377708
	48	1	1.36110451439712187849	9.49308043115651400967	9.49308043115651400967
	49	1	0.01629428241873204578	5.42352277494137791081	10.83789126580098027830
	50	1	2.71991064792988046506	8.13427459895671667311	10.84484771997425056611
	51	1	2.71601124407893612656	5.42582372239131238700	13.56618283229288302039
	52	1	0.00317283275569207228	8.13793611658533855291	13.56455456692846084366
	53	1	1.36175428138695697733	6.78089178142183612863	12.20473737366498312440
	54	1	4.07329326457622542534	9.49243066416667780061	12.20473737366498312440
	55	1	4.07129954504947022542	6.78288550094859665762	14.92452767979835392964
	56	1	1.35941304256882333767	9.49477190298480877573	14.92379952181109459275
	57	1	0.00256717119430901943	5.42641410621859066055	16.28339450123515419477
	58	1	2.71566897730970424618	8.13851626957689155972	16.28392166250229067259
	59	1	2.71901601561957528830	5.42636494157133775218	19.00224298917951770704
	60	1	0.00151866286927048442	8.13932072525409644470	18.99634219203291252143
	61	1	1.36004615827241748249	6.78136301767353710801	17.64254696052462278999
	62	1	4.07282202832452622232	9.49413878728121929385	17.64254696052462278999
	63	1	4.07565450080477997830	6.77853054519327979932	20.36194110510783161772
	64	1	1.35887656294545533520	9.49530838260817589003	20.35369969033186521301
	65	1	0.00151866286927048442	10.85266688535044643515	0.00131815968871652951
	66	1	2.71566897730970424618	13.56508731443679671713	0.00212261536592097582
	67	1	2.71901601561957528830	10.84676608820383769682	2.71427414426016877513
	68	1	0.00256717119430901943	13.56561447570393319495	2.71422497961291542268
	69	1	1.36004615827241748249	12.20646201641446459973	1.35927576682501127792
	70	1	4.07129954504947022542	14.92448049358611683601	1.35775328354995328262
	71	1	4.07285606855153048400	12.20731829843595406260	4.07045968923552958785
	72	1	1.35871696164747235436	14.92450408669223449465	4.07031944247140664572
	73	1	0.01629428241873204578	10.83789126580098027830	5.42352277494137791081
	74	1	2.71601124407893612656	13.56618283229288302039	5.42582372239131238700
	75	1	2.71991064792988046506	10.84484771997425056611	8.13427459895671667311
	76	1	0.00317283275569207228	13.56455456692846084366	8.13793611658533855291
	77	1	1.36175428138695697733	12.20473737366498312440	6.78089178142183612863
	78	1	4.07129954504947022542	14.92452767979835392964	6.78288550094859665762
	79	1	4.07329326457622542534	12.20473737366498312440	9.49243066416667780061
	80	1	1.35941304256882333767	14.92379952181109459275	9.49477190298480877573
	81	1	0.00253816912204798441	10.85164737909766685675	10.85164737909766685675
	82	1	2.71624913030126036162	13.56455456692846084366	10.85101271546402124102
	83	1	2.71624913030126036162	10.85101271546402124102	13.56455456692846084366
	84	1	0.00091973167109757662	13.56666794588391766752	13.56666794588391766752
	85	1	1.35854609400840375955	12.20931760875603089289	12.20931760875603089289
	86	1	4.07172265273043798572	14.92406638687570286095	12.20915580750750351058
	87	1	4.07172265273043798572	12.20915580750750351058	14.92406638687570286095
	88	1	1.35722750597061470046	14.92450408669223449465	14.92450408669223449465
	89	1	0.00118144080297549075	10.85300410741673893256	16.28031143348799858472
	90	1	2.71492379111253079316	13.56778527939555445414	16.28122369754353115923
	91	1	2.71486452163250246983	10.85266688535044643515	18.99634219203291252143
	92	1	0.00118144080297549075	13.56869754345108702864	18.99600496996662002402
	93	1	1.35805846589066026020	12.21027957037795808048	17.63872940656112930924
	94	1	4.07172265273043798572	14.92494178650876612835	17.63985316943158210279
	95	1	4.07282202832452622232	12.20646201641446459973	20.35486928565882891462
	96	1	1.35941304256882333767	14.92520865157337617291	20.35423616995523588002
	97	1	0.00317283275569207228	16.28445441001062476971	0.00270276835747478277
	98	1	2.71991064792988046506	19.00416135740910661411	0.00636428598609683951
	99	1	2.71601124407893612656	16.28282614464620436934	2.71481536344019591667
	100	1	0.01629428241873204578	19.01111781158238045464	2.71711631089013039286
	101	1	1.36175428138695697733	17.64427160327410604168	1.35974700307671092503
	102	1	4.07876724463849438251	20.36638730541637443139	1.36522098313897743971
	103	1	4.07285606855153048400	17.64169067850313155077	4.07017919570728370360
	104	1	1.38243910117519086533	20.37726222856160163133	4.07058611367136791159
	105	1	0.00256717119430901943	16.28339450123515419477	5.42641410621859066055
	106	1	2.71901601561957528830	19.00224298917951770704	5.42636494157133775218
	107	1	2.71566897730970424618	16.28392166250229067259	8.13851626957689155972
	108	1	0.00151866286927048442	18.99634219203291252143	8.13932072525409644470
	109	1	1.36004615827241748249	17.64254696052462278999	6.78136301767353710801
	110	1	4.07565450080477997830	20.36194110510783161772	6.77853054519327979932
	111	1	4.07282202832452622232	17.64254696052462278999	9.49413878728121929385
	112	1	1.35887656294545533520	20.35369969033186521301	9.49530838260817589003
	113	1	0.00118144080297549075	16.28031143348799858472	10.85300410741673893256
	114	1	2.71486452163250246983	18.99634219203291252143	10.85266688535044643515
	115	1	2.71492379111253079316	16.28122369754353115923	13.56778527939555445414
	116	1	0.00118144080297549075	18.99600496996662002402	13.56869754345108702864
	117	1	1.35805846589066026020	17.63872940656112930924	12.21027957037795808048
	118	1	4.07282202832452622232	20.35486928565882891462	12.20646201641446459973
	119	1	4.07172265273043798572	17.63985316943158210279	14.92494178650876612835
	120	1	1.35941304256882333767	20.35423616995523588002	14.92520865157337617291
	121	1	0.00091973167109757662	16.28234103105517149856	16.28234103105517149856
	122	1	2.71624913030126036162	18.99799636191933771556	16.28445441001062476971
	123	1	2.71624913030126036162	16.28445441001062476971	18.99799636191933771556
	124	1	0.00253816912204798441	18.99736169828568677076	18.99736169828568677076
	125	1	1.35854609400840375955	17.63969136818305472048	17.63969136818305472048
	126	1	4.07329326457622542534	20.35657740877336863150	17.64427160327410604168
	127	1	4.07329326457622542534	17.64427160327410604168	20.35657740877336863150
	128	1	1.36110451439712187849	20.35592764178353419879	20.35592764178353419879
	129	1	5.43592448295231012168	0.03988174922802016631	0.03988174922802016631
	130	1	8.13806376629682581836	2.71612148058977442844	0.02141452197224916545
	131	1	8.13806376629682581836	0.02141452197224916545	2.71612148058977442844
	132	1	5.62041958287393672578	2.90687322092999478329	2.90687322092999478329
	133	1	6.76913441286623651649	1.42825053936796275700	1.42825053936796275700
	134	1	9.42593440618567157685	4.08505063313182059659	1.42825053936796275700
	135	1	9.42593440618567157685	1.42825053936796275700	4.08505063313182059659
	136	1	5.42966784253371148594	0.02141452197224916545	5.42451760524173565159
	137	1	7.94731202595660235488	2.90687322092999478329	5.23376586490151129993
	138	1	8.13180712587822895898	0.03988174922802016631	8.10075713571479560926
	139	1	5.42966784253371148594	2.71612148058977442844	8.11922436297056293597
	140	1	6.79859679418706974730	1.42825053936796275700	6.71238824513058141008
	141	1	9.42593440618567157685	4.05558825181099269486	6.71238824513058141008
	142	1	9.48896396241465645005	1.36522098313897743971	9.48262076752367377708
	143	1	6.78386560352665402007	4.07031944247140664572	9.48232604631077435897
	144	1	5.42782050620410405628	0.00546965367579001389	10.84676608820383769682
	145	1	8.13621147389726395716	2.71797377298933895418	10.84768364224452774636
	146	1	8.13936988344640077742	0.00246488213515053773	13.56618283229288302039
	147	1	5.42757088633993944882	2.71402452439600194722	13.56661515246006111113
	148	1	6.78400585029077696220	1.35930980705201598369	12.20731829843595406260
	149	1	9.49487513850161946038	4.07017919570728370360	12.20731829843595406260
	150	1	9.49643166200368682439	1.35775328354995328262	14.92452767979835392964
	151	1	6.78386560352665402007	4.07031944247140664572	14.92450408669223449465
	152	1	5.42836172538413475053	0.00246488213515053773	16.28282614464620436934
	153	1	8.14016072249059696730	2.71402452439600194722	16.28239382447902627860
	154	1	8.13991110262643324802	0.00546965367579001389	19.00224298917951770704
	155	1	5.43152013493327423532	2.71797377298933895418	19.00132543513882765751
	156	1	6.78372535676252930159	1.35930980705201598369	17.64169067850313155077
	157	1	9.49487513850161946038	4.07045968923552958785	17.64169067850313155077
	158	1	9.49207670624837085427	1.36210823930526458980	20.36194110510783161772
	159	1	6.78386560352665402007	4.07031944247140664572	20.36668202662927384949
	160	1	5.42966784253371148594	5.42451760524173565159	0.02141452197224916545
	161	1	8.13180712587822895898	8.10075713571479560926	0.03988174922802016631
	162	1	7.94731202595660235488	5.23376586490151129993	2.90687322092999478329
	163	1	5.42966784253371148594	8.11922436297056293597	2.71612148058977442844
	164	1	6.79859679418706974730	6.71238824513058141008	1.42825053936796275700
	165	1	9.48896396241465645005	9.48262076752367377708	1.36522098313897743971
	166	1	9.42593440618567157685	6.71238824513058141008	4.05558825181099269486
	167	1	6.78386560352665402007	9.48232604631077435897	4.07031944247140664572
	168	1	5.62041958287393672578	5.23376586490151129993	5.23376586490151129993
	169	1	8.13806376629682581836	8.11922436297056293597	5.42451760524173565159
	170	1	8.13806376629682581836	5.42451760524173565159	8.11922436297056293597
	171	1	5.43592448295231012168	8.10075713571479560926	8.10075713571479560926
	172	1	6.76913441286623651649	6.71238824513058141008	6.71238824513058141008
	173	1	9.49207670624837085427	9.48706696783221836711	6.77853054519327979932
	174	1	9.49207670624837085427	6.77853054519327979932	9.48706696783221836711
	175	1	6.78413227472660995687	9.47174584437844657714	9.47174584437844657714
	176	1	5.43152013493327423532	5.42266531284216757314	10.84768364224452774636
	177	1	8.13991110262643324802	8.13516923126702273805	10.84676608820383769682
	178	1	8.14016072249059696730	5.42661456143550413600	13.56661515246006111113
	179	1	5.42836172538413475053	8.13817400280766811704	13.56618283229288302039
	180	1	6.78372535676252930159	6.78132897744652662908	12.20731829843595406260
	181	1	9.49490917872862816296	9.49413878728121929385	12.20646201641446459973
	182	1	9.49643166200368682439	6.78288550094859665762	14.92448049358611683601
	183	1	6.78386560352665402007	9.49546798390616508811	14.92450408669223449465
	184	1	5.42757088633993944882	5.42661456143550413600	16.28239382447902627860
	185	1	8.13936988344640077742	8.13817400280766811704	16.28282614464620436934
	186	1	8.13621147389726395716	5.42266531284216757314	19.00132543513882765751
	187	1	5.42782050620410405628	8.13516923126702273805	19.00224298917951770704
	188	1	6.78400585029077696220	6.78132897744652662908	17.64169067850313155077
	189	1	9.49443794247692629540	9.49243066416667780061	17.64427160327410604168
	190	1	9.48896396241465645005	6.77541780135956539510	20.36638730541637443139
	191	1	6.78359893232669364238	9.47174584437844657714	20.37726222856160163133
	192	1	5.42782050620410405628	10.84676608820383769682	0.00546965367579001389
	193	1	8.13936988344640077742	13.56618283229288302039	0.00246488213515053773
	194	1	8.13621147389726395716	10.84768364224452774636	2.71797377298933895418
	195	1	5.42757088633993944882	13.56661515246006111113	2.71402452439600194722
	196	1	6.78400585029077696220	12.20731829843595406260	1.35930980705201598369
	197	1	9.49643166200368682439	14.92452767979835392964	1.35775328354995328262
	198	1	9.49487513850161946038	12.20731829843595406260	4.07017919570728370360
	199	1	6.78386560352665402007	14.92450408669223449465	4.07031944247140664572
	200	1	5.43152013493327423532	10.84768364224452774636	5.42266531284216757314
	201	1	8.14016072249059696730	13.56661515246006111113	5.42661456143550413600
	202	1	8.13991110262643324802	10.84676608820383769682	8.13516923126702273805
	203	1	5.42836172538413475053	13.56618283229288302039	8.13817400280766811704
	204	1	6.78372535676252930159	12.20731829843595406260	6.78132897744652662908
	205	1	9.49643166200368682439	14.92448049358611683601	6.78288550094859665762
	206	1	9.49490917872862816296	12.20646201641446459973	9.49413878728121929385
	207	1	6.78386560352665402007	14.92450408669223449465	9.49546798390616508811
	208	1	5.43066267283406745037	10.83789126580098027830	10.83789126580098027830
	209	1	8.13996026727368438003	13.56561447570393319495	10.85161837702540665873
	210	1	8.13996026727368438003	10.85161837702540665873	13.56561447570393319495
	211	1	5.42837340156141401337	13.56351295794929256999	13.56351295794929256999
	212	1	6.78298795472005355833	12.20188396766230098933	12.20188396766230098933
	213	1	9.49600855432271195866	14.92494178650876612835	12.20915580750750351058
	214	1	9.49600855432271195866	12.20915580750750351058	14.92494178650876612835
	215	1	6.78386560352665402007	14.92450408669223449465	14.92450408669223449465
	216	1	5.42777134155685203609	10.85161837702540665873	16.28339450123515419477
	217	1	8.13935820726911707368	13.56351295794929256999	16.28549601898979304337
	218	1	8.13706893599647074211	10.83789126580098027830	19.01111781158238045464
	219	1	5.42777134155685203609	13.56561447570393319495	18.99739070035794341607
	220	1	6.78474325233325181728	12.20188396766230098933	17.64712500927678462403
	221	1	9.49600855432271195866	14.92406638687570286095	17.63985316943158210279
	222	1	9.49443794247692629540	12.20473737366498312440	20.35657740877336863150
	223	1	6.78386560352665402007	14.92450408669223449465	20.35354008903388134399
	224	1	5.42836172538413475053	16.28282614464620436934	0.00246488213515053773
	225	1	8.13991110262643324802	19.00224298917951770704	0.00546965367579001389
	226	1	8.14016072249059696730	16.28239382447902627860	2.71402452439600194722
	227	1	5.43152013493327423532	19.00132543513882765751	2.71797377298933895418
	228	1	6.78372535676252930159	17.64169067850313155077	1.35930980705201598369
	229	1	9.49207670624837085427	20.36194110510783161772	1.36210823930526458980
	230	1	9.49487513850161946038	17.64169067850313155077	4.07045968923552958785
	231	1	6.78386560352665402007	20.36668202662927384949	4.07031944247140664572
	232	1	5.42757088633993944882	16.28239382447902627860	5.42661456143550413600
	233	1	8.13621147389726395716	19.00132543513882765751	5.42266531284216757314
	234	1	8.13936988344640077742	16.28282614464620436934	8.13817400280766811704
	235	1	5.42782050620410405628	19.00224298917951770704	8.13516923126702273805
	236	1	6.78400585029077696220	17.64169067850313155077	6.78132897744652662908
	237	1	9.48896396241465645005	20.36638730541637443139	6.77541780135956539510
	238	1	9.49443794247692629540	17.64427160327410604168	9.49243066416667780061
	239	1	6.78359893232669364238	20.37726222856160163133	9.47174584437844657714
	240	1	5.42777134155685203609	16.28339450123515419477	10.85161837702540665873
	241	1	8.13706893599647074211	19.01111781158238045464	10.83789126580098027830
	242	1	8.13935820726911707368	16.28549601898979304337	13.56351295794929256999
	243	1	5.42777134155685203609	18.99739070035794341607	13.56561447570393319495
	244	1	6.78474325233325181728	17.64712500927678462403	12.20188396766230098933
	245	1	9.49443794247692629540	20.35657740877336863150	12.20473737366498312440
	246	1	9.49600855432271195866	17.63985316943158210279	14.92406638687570286095
	247	1	6.78386560352665402007	20.35354008903388134399	14.92450408669223449465
	248	1	5.42837340156141401337	16.28549601898979304337	16.28549601898979304337
	249	1	8.13996026727368438003	18.99739070035794341607	16.28339450123515419477
	250	1	8.13996026727368438003	16.28339450123515419477	18.99739070035794341607
	251	1	5.43066267283406745037	19.01111781158238045464	19.01111781158238045464
	252	1	6.78298795472005355833	17.64712500927678462403	17.64712500927678462403
	253	1	9.49490917872862816296	20.35486928565882891462	17.64254696052462278999
	254	1	9.49490917872862816296	17.64254696052462278999	20.35486928565882891462
	255	1	6.78413227472660995687	20.37726222856160163133	20.37726222856160163133
	256	1	10.85119789335104734107	0.00298765486866517079	0.00298765486866517079
	257	1	13.56031174703742969712	2.71427414426016877513	0.00546965367579001389
	258	1	13.56031174703742969712	0.00546965367579001389	2.71427414426016877513
	259	1	10.83277102624746213166	2.71612148058977442844	2.71612148058977442844
	260	1	12.20061353066484599594	1.36210823930526458980	1.36210823930526458980
	261	1	14.92086405771381585339	4.07045968923552958785	1.35930980705201598369
	262	1	14.92086405771381585339	1.35930980705201598369	4.07045968923552958785
	263	1	12.19587260914340554052	4.07031944247140664572	4.07031944247140664572
	264	1	10.81430379899169302860	0.03988174922802016631	5.41826096482313079861
	265	1	13.56122930107812152301	2.71797377298933895418	5.42266531284216757314
	266	1	13.55839337880784079005	0.00636428598609683951	8.13427459895671667311
	267	1	10.81430379899169302860	2.72237812100837484053	8.10075713571479560926
	268	1	12.19616733035630495863	1.36522098313897743971	6.77541780135956539510
	269	1	14.92086405771381585339	4.07017919570728370360	6.78132897744652662908
	270	1	14.91828313294284313884	1.35974700307671092503	9.49243066416667780061
	271	1	12.18529240721107598233	4.07058611367136791159	9.47174584437844657714
	272	1	10.84782126223361586881	0.00636428598609683951	10.84484771997425056611
	273	1	13.55143692463456694952	2.71711631089013039286	10.83789126580098027830
	274	1	13.56455837429760968860	0.00270276835747478277	13.56455456692846084366
	275	1	10.85172066608456731274	2.71481536344019591667	13.56618283229288302039
	276	1	12.20597722699931075852	1.35974700307671092503	12.20473737366498312440
	277	1	14.91542972694016100377	4.06944179366480618398	12.20188396766230098933
	278	1	14.92270156678536352501	1.35817639123092281928	14.92406638687570286095
	279	1	12.20901454673879804602	4.07031944247140664572	14.92450408669223449465
	280	1	10.85206293285379430813	0.00212261536592097582	16.28392166250229067259
	281	1	13.56516403585900398809	2.71422497961291542268	16.28339450123515419477
	282	1	13.56621254418403310638	0.00131815968871652951	18.99634219203291252143
	283	1	10.84871589454392193375	2.71427414426016877513	19.00224298917951770704
	284	1	12.20768535011385047540	1.35927576682501127792	17.64254696052462278999
	285	1	14.91542972694016100377	4.07119709127800710746	17.64712500927678462403
	286	1	14.92000777569232461417	1.35927576682501127792	20.35486928565882891462
	287	1	12.18529240721107598233	4.07005277127144449167	20.37726222856160163133
	288	1	10.81430379899169302860	5.41826096482313079861	0.03988174922802016631
	289	1	13.55839337880784079005	8.13427459895671667311	0.00636428598609683951
	290	1	13.56122930107812152301	5.42266531284216757314	2.71797377298933895418
	291	1	10.81430379899169302860	8.10075713571479560926	2.72237812100837484053
	292	1	12.19616733035630495863	6.77541780135956539510	1.36522098313897743971
	293	1	14.91828313294284313884	9.49243066416667780061	1.35974700307671092503
	294	1	14.92086405771381585339	6.78132897744652662908	4.07017919570728370360
	295	1	12.18529240721107598233	9.47174584437844657714	4.07058611367136791159
	296	1	10.83277102624746213166	5.42451760524173565159	5.42451760524173565159
	297	1	13.56031174703742969712	8.13516923126702273805	5.42636494157133775218
	298	1	13.56031174703742969712	5.42636494157133775218	8.13516923126702273805
	299	1	10.85119789335104734107	8.13765123007414636902	8.13765123007414636902
	300	1	12.20061353066484599594	6.77853054519327979932	6.77853054519327979932
	301	1	14.92000777569232461417	9.49413878728121929385	6.78136301767353710801
	302	1	14.92000777569232461417	6.78136301767353710801	9.49413878728121929385
	303	1	12.20885494544081240065	9.49530838260817589003	9.49530838260817589003
	304	1	10.84871589454392193375	5.42636494157133775218	10.84676608820383769682
	305	1	13.56621254418403310638	8.13932072525409644470	10.85266688535044643515
	306	1	13.56516403585900398809	5.42641410621859066055	13.56561447570393319495
	307	1	10.85206293285379430813	8.13851626957689155972	13.56508731443679671713
	308	1	12.20768535011385047540	6.78136301767353710801	12.20646201641446459973
	309	1	14.92382532965581809492	9.49612647966297451774	12.21027957037795808048
	310	1	14.92270156678536352501	6.78246239326762179189	14.92494178650876612835
	311	1	12.20831846581743995728	9.49477190298480877573	14.92520865157337617291
	312	1	10.85172066608456731274	5.42582372239131238700	16.28282614464620436934
	313	1	13.56455837429760968860	8.13793611658533855291	16.28445441001062476971
	314	1	13.55143692463456694952	5.42352277494137791081	19.01111781158238045464
	315	1	10.84782126223361586881	8.13427459895671667311	19.00416135740910661411
	316	1	12.20597722699931075852	6.78089178142183612863	17.64427160327410604168
	317	1	14.92286336803389090733	9.49563885154523390497	17.63969136818305472048
	318	1	14.91828313294284313884	6.78089178142183612863	20.35657740877336863150
	319	1	12.20662699398914341486	9.49308043115651400967	20.35592764178353419879
	320	1	10.84782126223361586881	10.84484771997425056611	0.00636428598609683951
	321	1	13.56455837429760968860	13.56455456692846084366	0.00270276835747478277
	322	1	13.55143692463456694952	10.83789126580098027830	2.71711631089013039286
	323	1	10.85172066608456731274	13.56618283229288302039	2.71481536344019591667
	324	1	12.20597722699931075852	12.20473737366498312440	1.35974700307671092503
	325	1	14.92270156678536352501	14.92406638687570286095	1.35817639123092281928
	326	1	14.91542972694016100377	12.20188396766230098933	4.06944179366480618398
	327	1	12.20901454673879804602	14.92450408669223449465	4.07031944247140664572
	328	1	10.84871589454392193375	10.84676608820383769682	5.42636494157133775218
	329	1	13.56516403585900398809	13.56561447570393319495	5.42641410621859066055
	330	1	13.56621254418403310638	10.85266688535044643515	8.13932072525409644470
	331	1	10.85206293285379430813	13.56508731443679671713	8.13851626957689155972
	332	1	12.20768535011385047540	12.20646201641446459973	6.78136301767353710801
	333	1	14.92270156678536352501	14.92494178650876612835	6.78246239326762179189
	334	1	14.92382532965581809492	12.21027957037795808048	9.49612647966297451774
	335	1	12.20831846581743995728	14.92520865157337617291	9.49477190298480877573
	336	1	10.85286738853099741675	10.85266688535044643515	10.85266688535044643515
	337	1	13.56654976625032915649	13.56869754345108702864	10.85300410741673893256
	338	1	13.56654976625032915649	10.85300410741673893256	13.56869754345108702864
	339	1	10.85280811905096776115	13.56778527939555445414	13.56778527939555445414
	340	1	12.20967304249560747564	12.21027957037795808048	12.21027957037795808048
	341	1	14.92397009271709329425	14.92480666103340780637	12.21042433343923327982
	342	1	14.92397009271709329425	12.21042433343923327982	14.92480666103340780637
	343	1	12.21050400241565547788	14.92450408669223449465	14.92450408669223449465
	344	1	10.85148277986223952496	10.85101271546402124102	16.28445441001062476971
	345	1	13.56681147538220777449	13.56666794588391766752	16.28234103105517149856
	346	1	13.56519303793125885704	10.85164737909766685675	18.99736169828568677076
	347	1	10.85148277986223952496	13.56455456692846084366	18.99799636191933771556
	348	1	12.20918541437785975745	12.20931760875603089289	17.63969136818305472048
	349	1	14.92397009271709329425	14.92420151235106118293	17.63858464349985410990
	350	1	14.92286336803389090733	12.20931760875603089289	20.35336922139481785621
	351	1	12.20831846581743995728	14.92379952181109459275	20.35423616995523588002
	352	1	10.85206293285379430813	16.28392166250229067259	0.00212261536592097582
	353	1	13.56621254418403310638	18.99634219203291252143	0.00131815968871652951
	354	1	13.56516403585900398809	16.28339450123515419477	2.71422497961291542268
	355	1	10.84871589454392193375	19.00224298917951770704	2.71427414426016877513
	356	1	12.20768535011385047540	17.64254696052462278999	1.35927576682501127792
	357	1	14.92000777569232461417	20.35486928565882891462	1.35927576682501127792
	358	1	14.91542972694016100377	17.64712500927678462403	4.07119709127800710746
	359	1	12.18529240721107598233	20.37726222856160163133	4.07005277127144449167
	360	1	10.85172066608456731274	16.28282614464620436934	5.42582372239131238700
	361	1	13.55143692463456694952	19.01111781158238045464	5.42352277494137791081
	362	1	13.56455837429760968860	16.28445441001062476971	8.13793611658533855291
	363	1	10.84782126223361586881	19.00416135740910661411	8.13427459895671667311
	364	1	12.20597722699931075852	17.64427160327410604168	6.78089178142183612863
	365	1	14.91828313294284313884	20.35657740877336863150	6.78089178142183612863
	366	1	14.92286336803389090733	17.63969136818305472048	9.49563885154523390497
	367	1	12.20662699398914341486	20.35592764178353419879	9.49308043115651400967
	368	1	10.85148277986223952496	16.28445441001062476971	10.85101271546402124102
	369	1	13.56519303793125885704	18.99736169828568677076	10.85164737909766685675
	370	1	13.56681147538220777449	16.28234103105517149856	13.56666794588391766752
	371	1	10.85148277986223952496	18.99799636191933771556	13.56455456692846084366
	372	1	12.20918541437785975745	17.63969136818305472048	12.20931760875603089289
	373	1	14.92286336803389090733	20.35336922139481785621	12.20931760875603089289
	374	1	14.92397009271709329425	17.63858464349985410990	14.92420151235106118293
	375	1	12.20831846581743995728	20.35423616995523588002	14.92379952181109459275
	376	1	10.85280811905096776115	16.28122369754353115923	16.28122369754353115923
	377	1	13.56654976625032915649	18.99600496996662002402	16.28031143348799858472
	378	1	13.56654976625032915649	16.28031143348799858472	18.99600496996662002402
	379	1	10.85286738853099741675	18.99634219203291252143	18.99634219203291252143
	380	1	12.20967304249560747564	17.63872940656112930924	17.63872940656112930924
	381	1	14.92382532965581809492	20.35288159327707191437	17.63872940656112930924
	382	1	14.92382532965581809492	17.63872940656112930924	20.35288159327707191437
	383	1	12.20885494544081240065	20.35369969033186521301	20.35369969033186521301
	384	1	16.27863387726927513199	0.00212261536592097582	0.00212261536592097582
	385	1	18.99637190392406438377	2.71481536344019591667	0.00246488213515053773
	386	1	18.99637190392406438377	0.00246488213515053773	2.71481536344019591667