 
 640 atoms 
 
 1 atom types
 0.00000000000000000000 19.72703715617573649865 xlo xhi
 0.00000000000000000000 13.94912174585084940759 ylo yhi
 0.00000000000000000000 49.31759289043934302299 zlo zhi
 
 Atoms 
 
	1	1	0.00000000000000000000	0.00000000000000000000	0.00000000000000000000
	2	1	2.46587964452196706233	0.00000000000000000000	2.46587964452196706233
	3	1	2.46587964452196706233	1.74364021823135617595	0.00000000000000000000
	4	1	0.00000000000000000000	1.74364021823135617595	2.46587964452196706233
	5	1	0.00000000000000000000	0.00000000000000000000	4.93175928904393412466
	6	1	2.46587964452196706233	0.00000000000000000000	7.39763893356590074291
	7	1	2.46587964452196706233	1.74364021823135617595	4.93175928904393412466
	8	1	0.00000000000000000000	1.74364021823135617595	7.39763893356590074291
	9	1	0.00000000000000000000	0.00000000000000000000	9.86351857808786824933
	10	1	2.46587964452196706233	0.00000000000000000000	12.32939822260983575575
	11	1	2.46587964452196706233	1.74364021823135617595	9.86351857808786824933
	12	1	0.00000000000000000000	1.74364021823135617595	12.32939822260983575575
	13	1	0.00000000000000000000	0.00000000000000000000	14.79527786713180148581
	14	1	2.46587964452196706233	0.00000000000000000000	17.26115751165376721588
	15	1	2.46587964452196706233	1.74364021823135617595	14.79527786713180148581
	16	1	0.00000000000000000000	1.74364021823135617595	17.26115751165376721588
	17	1	0.00000000000000000000	0.00000000000000000000	19.72703715617573649865
	18	1	2.46587964452196706233	0.00000000000000000000	22.19291680069770222872
	19	1	2.46587964452196706233	1.74364021823135617595	19.72703715617573649865
	20	1	0.00000000000000000000	1.74364021823135617595	22.19291680069770222872
	21	1	0.00000000000000000000	0.00000000000000000000	24.65879644521967151150
	22	1	2.46587964452196706233	0.00000000000000000000	27.12467608974163724156
	23	1	2.46587964452196706233	1.74364021823135617595	24.65879644521967151150
	24	1	0.00000000000000000000	1.74364021823135617595	27.12467608974163724156
	25	1	0.00000000000000000000	0.00000000000000000000	29.59055573426360297162
	26	1	2.46587964452196706233	0.00000000000000000000	32.05643537878557225440
	27	1	2.46587964452196706233	1.74364021823135617595	29.59055573426360297162
	28	1	0.00000000000000000000	1.74364021823135617595	32.05643537878557225440
	29	1	0.00000000000000000000	0.00000000000000000000	34.52231502330754153718
	30	1	2.46587964452196706233	0.00000000000000000000	36.98819466782951081996
	31	1	2.46587964452196706233	1.74364021823135617595	34.52231502330754153718
	32	1	0.00000000000000000000	1.74364021823135617595	36.98819466782951081996
	33	1	0.00000000000000000000	0.00000000000000000000	39.45407431235147299731
	34	1	2.46587964452196706233	0.00000000000000000000	41.91995395687344228008
	35	1	2.46587964452196706233	1.74364021823135617595	39.45407431235147299731
	36	1	0.00000000000000000000	1.74364021823135617595	41.91995395687344228008
	37	1	0.00000000000000000000	0.00000000000000000000	44.38583360139540445743
	38	1	2.46587964452196706233	0.00000000000000000000	46.85171324591737374021
	39	1	2.46587964452196706233	1.74364021823135617595	44.38583360139540445743
	40	1	0.00000000000000000000	1.74364021823135617595	46.85171324591737374021
	41	1	0.00000000000000000000	3.48728043646271235190	0.00000000000000000000
	42	1	2.46587964452196706233	3.48728043646271235190	2.46587964452196706233
	43	1	2.46587964452196706233	5.23092065469406897193	0.00000000000000000000
	44	1	0.00000000000000000000	5.23092065469406897193	2.46587964452196706233
	45	1	0.00000000000000000000	3.48728043646271235190	4.93175928904393412466
	46	1	2.46587964452196706233	3.48728043646271235190	7.39763893356590074291
	47	1	2.46587964452196706233	5.23092065469406897193	4.93175928904393412466
	48	1	0.00000000000000000000	5.23092065469406897193	7.39763893356590074291
	49	1	0.00000000000000000000	3.48728043646271235190	9.86351857808786824933
	50	1	2.46587964452196706233	3.48728043646271235190	12.32939822260983575575
	51	1	2.46587964452196706233	5.23092065469406897193	9.86351857808786824933
	52	1	0.00000000000000000000	5.23092065469406897193	12.32939822260983575575
	53	1	0.00000000000000000000	3.48728043646271235190	14.79527786713180148581
	54	1	2.46587964452196706233	3.48728043646271235190	17.26115751165376721588
	55	1	2.46587964452196706233	5.23092065469406897193	14.79527786713180148581
	56	1	0.00000000000000000000	5.23092065469406897193	17.26115751165376721588
	57	1	0.00000000000000000000	3.48728043646271235190	19.72703715617573649865
	58	1	2.46587964452196706233	3.48728043646271235190	22.19291680069770222872
	59	1	2.46587964452196706233	5.23092065469406897193	19.72703715617573649865
	60	1	0.00000000000000000000	5.23092065469406897193	22.19291680069770222872
	61	1	0.00000000000000000000	3.48728043646271235190	24.65879644521967151150
	62	1	2.46587964452196706233	3.48728043646271235190	27.12467608974163724156
	63	1	2.46587964452196706233	5.23092065469406897193	24.65879644521967151150
	64	1	0.00000000000000000000	5.23092065469406897193	27.12467608974163724156
	65	1	0.00000000000000000000	3.48728043646271235190	29.59055573426360297162
	66	1	2.46587964452196706233	3.48728043646271235190	32.05643537878557225440
	67	1	2.46587964452196706233	5.23092065469406897193	29.59055573426360297162
	68	1	0.00000000000000000000	5.23092065469406897193	32.05643537878557225440
	69	1	0.00000000000000000000	3.48728043646271235190	34.52231502330754153718
	70	1	2.46587964452196706233	3.48728043646271235190	36.98819466782951081996
	71	1	2.46587964452196706233	5.23092065469406897193	34.52231502330754153718
	72	1	0.00000000000000000000	5.23092065469406897193	36.98819466782951081996
	73	1	0.00000000000000000000	3.48728043646271235190	39.45407431235147299731
	74	1	2.46587964452196706233	3.48728043646271235190	41.91995395687344228008
	75	1	2.46587964452196706233	5.23092065469406897193	39.45407431235147299731
	76	1	0.00000000000000000000	5.23092065469406897193	41.91995395687344228008
	77	1	0.00000000000000000000	3.48728043646271235190	44.38583360139540445743
	78	1	2.46587964452196706233	3.48728043646271235190	46.85171324591737374021
	79	1	2.46587964452196706233	5.23092065469406897193	44.38583360139540445743
	80	1	0.00000000000000000000	5.23092065469406897193	46.85171324591737374021
	81	1	0.00000000000000000000	6.97456087292542470379	0.00000000000000000000
	82	1	2.46587964452196706233	6.97456087292542470379	2.46587964452196706233
	83	1	2.46587964452196706233	8.71820109115678043565	0.00000000000000000000
	84	1	0.00000000000000000000	8.71820109115678043565	2.46587964452196706233
	85	1	0.00000000000000000000	6.97456087292542470379	4.93175928904393412466
	86	1	2.46587964452196706233	6.97456087292542470379	7.39763893356590074291
	87	1	2.46587964452196706233	8.71820109115678043565	4.93175928904393412466
	88	1	0.00000000000000000000	8.71820109115678043565	7.39763893356590074291
	89	1	0.00000000000000000000	6.97456087292542470379	9.86351857808786824933
	90	1	2.46587964452196706233	6.97456087292542470379	12.32939822260983575575
	91	1	2.46587964452196706233	8.71820109115678043565	9.86351857808786824933
	92	1	0.00000000000000000000	8.71820109115678043565	12.32939822260983575575
	93	1	0.00000000000000000000	6.97456087292542470379	14.79527786713180148581
	94	1	2.46587964452196706233	6.97456087292542470379	17.26115751165376721588
	95	1	2.46587964452196706233	8.71820109115678043565	14.79527786713180148581
	96	1	0.00000000000000000000	8.71820109115678043565	17.26115751165376721588
	97	1	0.00000000000000000000	6.97456087292542470379	19.72703715617573649865
	98	1	2.46587964452196706233	6.97456087292542470379	22.19291680069770222872
	99	1	2.46587964452196706233	8.71820109115678043565	19.72703715617573649865
	100	1	0.00000000000000000000	8.71820109115678043565	22.19291680069770222872
	101	1	0.00000000000000000000	6.97456087292542470379	24.65879644521967151150
	102	1	2.46587964452196706233	6.97456087292542470379	27.12467608974163724156
	103	1	2.46587964452196706233	8.71820109115678043565	24.65879644521967151150
	104	1	0.00000000000000000000	8.71820109115678043565	27.12467608974163724156
	105	1	0.00000000000000000000	6.97456087292542470379	29.59055573426360297162
	106	1	2.46587964452196706233	6.97456087292542470379	32.05643537878557225440
	107	1	2.46587964452196706233	8.71820109115678043565	29.59055573426360297162
	108	1	0.00000000000000000000	8.71820109115678043565	32.05643537878557225440
	109	1	0.00000000000000000000	6.97456087292542470379	34.52231502330754153718
	110	1	2.46587964452196706233	6.97456087292542470379	36.98819466782951081996
	111	1	2.46587964452196706233	8.71820109115678043565	34.52231502330754153718
	112	1	0.00000000000000000000	8.71820109115678043565	36.98819466782951081996
	113	1	0.00000000000000000000	6.97456087292542470379	39.45407431235147299731
	114	1	2.46587964452196706233	6.97456087292542470379	41.91995395687344228008
	115	1	2.46587964452196706233	8.71820109115678043565	39.45407431235147299731
	116	1	0.00000000000000000000	8.71820109115678043565	41.91995395687344228008
	117	1	0.00000000000000000000	6.97456087292542470379	44.38583360139540445743
	118	1	2.46587964452196706233	6.97456087292542470379	46.85171324591737374021
	119	1	2.46587964452196706233	8.71820109115678043565	44.38583360139540445743
	120	1	0.00000000000000000000	8.71820109115678043565	46.85171324591737374021
	121	1	0.00000000000000000000	10.46184130938813794387	0.00000000000000000000
	122	1	2.46587964452196706233	10.46184130938813794387	2.46587964452196706233
	123	1	2.46587964452196706233	12.20548152761949367573	0.00000000000000000000
	124	1	0.00000000000000000000	12.20548152761949367573	2.46587964452196706233
	125	1	0.00000000000000000000	10.46184130938813794387	4.93175928904393412466
	126	1	2.46587964452196706233	10.46184130938813794387	7.39763893356590074291
	127	1	2.46587964452196706233	12.20548152761949367573	4.93175928904393412466
	128	1	0.00000000000000000000	12.20548152761949367573	7.39763893356590074291
	129	1	0.00000000000000000000	10.46184130938813794387	9.86351857808786824933
	130	1	2.46587964452196706233	10.46184130938813794387	12.32939822260983575575
	131	1	2.46587964452196706233	12.20548152761949367573	9.86351857808786824933
	132	1	0.00000000000000000000	12.20548152761949367573	12.32939822260983575575
	133	1	0.00000000000000000000	10.46184130938813794387	14.79527786713180148581
	134	1	2.46587964452196706233	10.46184130938813794387	17.26115751165376721588
	135	1	2.46587964452196706233	12.20548152761949367573	14.79527786713180148581
	136	1	0.00000000000000000000	12.20548152761949367573	17.26115751165376721588
	137	1	0.00000000000000000000	10.46184130938813794387	19.72703715617573649865
	138	1	2.46587964452196706233	10.46184130938813794387	22.19291680069770222872
	139	1	2.46587964452196706233	12.20548152761949367573	19.72703715617573649865
	140	1	0.00000000000000000000	12.20548152761949367573	22.19291680069770222872
	141	1	0.00000000000000000000	10.46184130938813794387	24.65879644521967151150
	142	1	2.46587964452196706233	10.46184130938813794387	27.12467608974163724156
	143	1	2.46587964452196706233	12.20548152761949367573	24.65879644521967151150
	144	1	0.00000000000000000000	12.20548152761949367573	27.12467608974163724156
	145	1	0.00000000000000000000	10.46184130938813794387	29.59055573426360297162
	146	1	2.46587964452196706233	10.46184130938813794387	32.05643537878557225440
	147	1	2.46587964452196706233	12.20548152761949367573	29.59055573426360297162
	148	1	0.00000000000000000000	12.20548152761949367573	32.05643537878557225440
	149	1	0.00000000000000000000	10.46184130938813794387	34.52231502330754153718
	150	1	2.46587964452196706233	10.46184130938813794387	36.98819466782951081996
	151	1	2.46587964452196706233	12.20548152761949367573	34.52231502330754153718
	152	1	0.00000000000000000000	12.20548152761949367573	36.98819466782951081996
	153	1	0.00000000000000000000	10.46184130938813794387	39.45407431235147299731
	154	1	2.46587964452196706233	10.46184130938813794387	41.91995395687344228008
	155	1	2.46587964452196706233	12.20548152761949367573	39.45407431235147299731
	156	1	0.00000000000000000000	12.20548152761949367573	41.91995395687344228008
	157	1	0.00000000000000000000	10.46184130938813794387	44.38583360139540445743
	158	1	2.46587964452196706233	10.46184130938813794387	46.85171324591737374021
	159	1	2.46587964452196706233	12.20548152761949367573	44.38583360139540445743
	160	1	0.00000000000000000000	12.20548152761949367573	46.85171324591737374021
	161	1	4.93175928904393412466	0.00000000000000000000	0.00000000000000000000
	162	1	7.39763893356590074291	0.00000000000000000000	2.46587964452196706233
	163	1	7.39763893356590074291	1.74364021823135617595	0.00000000000000000000
	164	1	4.93175928904393412466	1.74364021823135617595	2.46587964452196706233
	165	1	4.93175928904393412466	0.00000000000000000000	4.93175928904393412466
	166	1	7.39763893356590074291	0.00000000000000000000	7.39763893356590074291
	167	1	7.39763893356590074291	1.74364021823135617595	4.93175928904393412466
	168	1	4.93175928904393412466	1.74364021823135617595	7.39763893356590074291
	169	1	4.93175928904393412466	0.00000000000000000000	9.86351857808786824933
	170	1	7.39763893356590074291	0.00000000000000000000	12.32939822260983575575
	171	1	7.39763893356590074291	1.74364021823135617595	9.86351857808786824933
	172	1	4.93175928904393412466	1.74364021823135617595	12.32939822260983575575
	173	1	4.93175928904393412466	0.00000000000000000000	14.79527786713180148581
	174	1	7.39763893356590074291	0.00000000000000000000	17.26115751165376721588
	175	1	7.39763893356590074291	1.74364021823135617595	14.79527786713180148581
	176	1	4.93175928904393412466	1.74364021823135617595	17.26115751165376721588
	177	1	4.93175928904393412466	0.00000000000000000000	19.72703715617573649865
	178	1	7.39763893356590074291	0.00000000000000000000	22.19291680069770222872
	179	1	7.39763893356590074291	1.74364021823135617595	19.72703715617573649865
	180	1	4.93175928904393412466	1.74364021823135617595	22.19291680069770222872
	181	1	4.93175928904393412466	0.00000000000000000000	24.65879644521967151150
	182	1	7.39763893356590074291	0.00000000000000000000	27.12467608974163724156
	183	1	7.39763893356590074291	1.74364021823135617595	24.65879644521967151150
	184	1	4.93175928904393412466	1.74364021823135617595	27.12467608974163724156
	185	1	4.93175928904393412466	0.00000000000000000000	29.59055573426360297162
	186	1	7.39763893356590074291	0.00000000000000000000	32.05643537878557225440
	187	1	7.39763893356590074291	1.74364021823135617595	29.59055573426360297162
	188	1	4.93175928904393412466	1.74364021823135617595	32.05643537878557225440
	189	1	4.93175928904393412466	0.00000000000000000000	34.52231502330754153718
	190	1	7.39763893356590074291	0.00000000000000000000	36.98819466782951081996
	191	1	7.39763893356590074291	1.74364021823135617595	34.52231502330754153718
	192	1	4.93175928904393412466	1.74364021823135617595	36.98819466782951081996
	193	1	4.93175928904393412466	0.00000000000000000000	39.45407431235147299731
	194	1	7.39763893356590074291	0.00000000000000000000	41.91995395687344228008
	195	1	7.39763893356590074291	1.74364021823135617595	39.45407431235147299731
	196	1	4.93175928904393412466	1.74364021823135617595	41.91995395687344228008
	197	1	4.93175928904393412466	0.00000000000000000000	44.38583360139540445743
	198	1	7.39763893356590074291	0.00000000000000000000	46.85171324591737374021
	199	1	7.39763893356590074291	1.74364021823135617595	44.38583360139540445743
	200	1	4.93175928904393412466	1.74364021823135617595	46.85171324591737374021
	201	1	4.93175928904393412466	3.48728043646271235190	0.00000000000000000000
	202	1	7.39763893356590074291	3.48728043646271235190	2.46587964452196706233
	203	1	7.39763893356590074291	5.23092065469406897193	0.00000000000000000000
	204	1	4.93175928904393412466	5.23092065469406897193	2.46587964452196706233
	205	1	4.93175928904393412466	3.48728043646271235190	4.93175928904393412466
	206	1	7.39763893356590074291	3.48728043646271235190	7.39763893356590074291
	207	1	7.39763893356590074291	5.23092065469406897193	4.93175928904393412466
	208	1	4.93175928904393412466	5.23092065469406897193	7.39763893356590074291
	209	1	4.93175928904393412466	3.48728043646271235190	9.86351857808786824933
	210	1	7.39763893356590074291	3.48728043646271235190	12.32939822260983575575
	211	1	7.39763893356590074291	5.23092065469406897193	9.86351857808786824933
	212	1	4.93175928904393412466	5.23092065469406897193	12.32939822260983575575
	213	1	4.93175928904393412466	3.48728043646271235190	14.79527786713180148581
	214	1	7.39763893356590074291	3.48728043646271235190	17.26115751165376721588
	215	1	7.39763893356590074291	5.23092065469406897193	14.79527786713180148581
	216	1	4.93175928904393412466	5.23092065469406897193	17.26115751165376721588
	217	1	4.93175928904393412466	3.48728043646271235190	19.72703715617573649865
	218	1	7.39763893356590074291	3.48728043646271235190	22.19291680069770222872
	219	1	7.39763893356590074291	5.23092065469406897193	19.72703715617573649865
	220	1	4.93175928904393412466	5.23092065469406897193	22.19291680069770222872
	221	1	4.93175928904393412466	3.48728043646271235190	24.65879644521967151150
	222	1	7.39763893356590074291	3.48728043646271235190	27.12467608974163724156
	223	1	7.39763893356590074291	5.23092065469406897193	24.65879644521967151150
	224	1	4.93175928904393412466	5.23092065469406897193	27.12467608974163724156
	225	1	4.93175928904393412466	3.48728043646271235190	29.59055573426360297162
	226	1	7.39763893356590074291	3.48728043646271235190	32.05643537878557225440
	227	1	7.39763893356590074291	5.23092065469406897193	29.59055573426360297162
	228	1	4.93175928904393412466	5.23092065469406897193	32.05643537878557225440
	229	1	4.93175928904393412466	3.48728043646271235190	34.52231502330754153718
	230	1	7.39763893356590074291	3.48728043646271235190	36.98819466782951081996
	231	1	7.39763893356590074291	5.23092065469406897193	34.52231502330754153718
	232	1	4.93175928904393412466	5.23092065469406897193	36.98819466782951081996
	233	1	4.93175928904393412466	3.48728043646271235190	39.45407431235147299731
	234	1	7.39763893356590074291	3.48728043646271235190	41.91995395687344228008
	235	1	7.39763893356590074291	5.23092065469406897193	39.45407431235147299731
	236	1	4.93175928904393412466	5.23092065469406897193	41.91995395687344228008
	237	1	4.93175928904393412466	3.48728043646271235190	44.38583360139540445743
	238	1	7.39763893356590074291	3.48728043646271235190	46.85171324591737374021
	239	1	7.39763893356590074291	5.23092065469406897193	44.38583360139540445743
	240	1	4.93175928904393412466	5.23092065469406897193	46.85171324591737374021
	241	1	4.93175928904393412466	6.97456087292542470379	0.00000000000000000000
	242	1	7.39763893356590074291	6.97456087292542470379	2.46587964452196706233
	243	1	7.39763893356590074291	8.71820109115678043565	0.00000000000000000000
	244	1	4.93175928904393412466	8.71820109115678043565	2.46587964452196706233
	245	1	4.93175928904393412466	6.97456087292542470379	4.93175928904393412466
	246	1	7.39763893356590074291	6.97456087292542470379	7.39763893356590074291
	247	1	7.39763893356590074291	8.71820109115678043565	4.93175928904393412466
	248	1	4.93175928904393412466	8.71820109115678043565	7.39763893356590074291
	249	1	4.93175928904393412466	6.97456087292542470379	9.86351857808786824933
	250	1	7.39763893356590074291	6.97456087292542470379	12.32939822260983575575
	251	1	7.39763893356590074291	8.71820109115678043565	9.86351857808786824933
	252	1	4.93175928904393412466	8.71820109115678043565	12.32939822260983575575
	253	1	4.93175928904393412466	6.97456087292542470379	14.79527786713180148581
	254	1	7.39763893356590074291	6.97456087292542470379	17.26115751165376721588
	255	1	7.39763893356590074291	8.71820109115678043565	14.79527786713180148581
	256	1	4.93175928904393412466	8.71820109115678043565	17.26115751165376721588
	257	1	4.93175928904393412466	6.97456087292542470379	19.72703715617573649865
	258	1	7.39763893356590074291	6.97456087292542470379	22.19291680069770222872
	259	1	7.39763893356590074291	8.71820109115678043565	19.72703715617573649865
	260	1	4.93175928904393412466	8.71820109115678043565	22.19291680069770222872
	261	1	4.93175928904393412466	6.97456087292542470379	24.65879644521967151150
	262	1	7.39763893356590074291	6.97456087292542470379	27.12467608974163724156
	263	1	7.39763893356590074291	8.71820109115678043565	24.65879644521967151150
	264	1	4.93175928904393412466	8.71820109115678043565	27.12467608974163724156
	265	1	4.93175928904393412466	6.97456087292542470379	29.59055573426360297162
	266	1	7.39763893356590074291	6.97456087292542470379	32.05643537878557225440
	267	1	7.39763893356590074291	8.71820109115678043565	29.59055573426360297162
	268	1	4.93175928904393412466	8.71820109115678043565	32.05643537878557225440
	269	1	4.93175928904393412466	6.97456087292542470379	34.52231502330754153718
	270	1	7.39763893356590074291	6.97456087292542470379	36.98819466782951081996
	271	1	7.39763893356590074291	8.71820109115678043565	34.52231502330754153718
	272	1	4.93175928904393412466	8.71820109115678043565	36.98819466782951081996
	273	1	4.93175928904393412466	6.97456087292542470379	39.45407431235147299731
	274	1	7.39763893356590074291	6.97456087292542470379	41.91995395687344228008
	275	1	7.39763893356590074291	8.71820109115678043565	39.45407431235147299731
	276	1	4.93175928904393412466	8.71820109115678043565	41.91995395687344228008
	277	1	4.93175928904393412466	6.97456087292542470379	44.38583360139540445743
	278	1	7.39763893356590074291	6.97456087292542470379	46.85171324591737374021
	279	1	7.39763893356590074291	8.71820109115678043565	44.38583360139540445743
	280	1	4.93175928904393412466	8.71820109115678043565	46.85171324591737374021
	281	1	4.93175928904393412466	10.46184130938813794387	0.00000000000000000000
	282	1	7.39763893356590074291	10.46184130938813794387	2.46587964452196706233
	283	1	7.39763893356590074291	12.20548152761949367573	0.00000000000000000000
	284	1	4.93175928904393412466	12.20548152761949367573	2.46587964452196706233
	285	1	4.93175928904393412466	10.46184130938813794387	4.93175928904393412466
	286	1	7.39763893356590074291	10.46184130938813794387	7.39763893356590074291
	287	1	7.39763893356590074291	12.20548152761949367573	4.93175928904393412466
	288	1	4.93175928904393412466	12.20548152761949367573	7.39763893356590074291
	289	1	4.93175928904393412466	10.46184130938813794387	9.86351857808786824933
	290	1	7.39763893356590074291	10.46184130938813794387	12.32939822260983575575
	291	1	7.39763893356590074291	12.20548152761949367573	9.86351857808786824933
	292	1	4.93175928904393412466	12.20548152761949367573	12.32939822260983575575
	293	1	4.93175928904393412466	10.46184130938813794387	14.79527786713180148581
	294	1	7.39763893356590074291	10.46184130938813794387	17.26115751165376721588
	295	1	7.39763893356590074291	12.20548152761949367573	14.79527786713180148581
	296	1	4.93175928904393412466	12.20548152761949367573	17.26115751165376721588
	297	1	4.93175928904393412466	10.46184130938813794387	19.72703715617573649865
	298	1	7.39763893356590074291	10.46184130938813794387	22.19291680069770222872
	299	1	7.39763893356590074291	12.20548152761949367573	19.72703715617573649865
	300	1	4.93175928904393412466	12.20548152761949367573	22.19291680069770222872
	301	1	4.93175928904393412466	10.46184130938813794387	24.65879644521967151150
	302	1	7.39763893356590074291	10.46184130938813794387	27.12467608974163724156
	303	1	7.39763893356590074291	12.20548152761949367573	24.65879644521967151150
	304	1	4.93175928904393412466	12.20548152761949367573	27.12467608974163724156
	305	1	4.93175928904393412466	10.46184130938813794387	29.59055573426360297162
	306	1	7.39763893356590074291	10.46184130938813794387	32.05643537878557225440
	307	1	7.39763893356590074291	12.20548152761949367573	29.59055573426360297162
	308	1	4.93175928904393412466	12.20548152761949367573	32.05643537878557225440
	309	1	4.93175928904393412466	10.46184130938813794387	34.52231502330754153718
	310	1	7.39763893356590074291	10.46184130938813794387	36.98819466782951081996
	311	1	7.39763893356590074291	12.20548152761949367573	34.52231502330754153718
	312	1	4.93175928904393412466	12.20548152761949367573	36.98819466782951081996
	313	1	4.93175928904393412466	10.46184130938813794387	39.45407431235147299731
	314	1	7.39763893356590074291	10.46184130938813794387	41.91995395687344228008
	315	1	7.39763893356590074291	12.20548152761949367573	39.45407431235147299731
	316	1	4.93175928904393412466	12.20548152761949367573	41.91995395687344228008
	317	1	4.93175928904393412466	10.46184130938813794387	44.38583360139540445743
	318	1	7.39763893356590074291	10.46184130938813794387	46.85171324591737374021
	319	1	7.39763893356590074291	12.20548152761949367573	44.38583360139540445743
	320	1	4.93175928904393412466	12.20548152761949367573	46.85171324591737374021
	321	1	9.86351857808786824933	0.00000000000000000000	0.00000000000000000000
	322	1	12.32939822260983575575	0.00000000000000000000	2.46587964452196706233
	323	1	12.32939822260983575575	1.74364021823135617595	0.00000000000000000000
	324	1	9.86351857808786824933	1.74364021823135617595	2.46587964452196706233
	325	1	9.86351857808786824933	0.00000000000000000000	4.93175928904393412466
	326	1	12.32939822260983575575	0.00000000000000000000	7.39763893356590074291
	327	1	12.32939822260983575575	1.74364021823135617595	4.93175928904393412466
	328	1	9.86351857808786824933	1.74364021823135617595	7.39763893356590074291
	329	1	9.86351857808786824933	0.00000000000000000000	9.86351857808786824933
	330	1	12.32939822260983575575	0.00000000000000000000	12.32939822260983575575
	331	1	12.32939822260983575575	1.74364021823135617595	9.86351857808786824933
	332	1	9.86351857808786824933	1.74364021823135617595	12.32939822260983575575
	333	1	9.86351857808786824933	0.00000000000000000000	14.79527786713180148581
	334	1	12.32939822260983575575	0.00000000000000000000	17.26115751165376721588
	335	1	12.32939822260983575575	1.74364021823135617595	14.79527786713180148581
	336	1	9.86351857808786824933	1.74364021823135617595	17.26115751165376721588
	337	1	9.86351857808786824933	0.00000000000000000000	19.72703715617573649865
	338	1	12.32939822260983575575	0.00000000000000000000	22.19291680069770222872
	339	1	12.32939822260983575575	1.74364021823135617595	19.72703715617573649865
	340	1	9.86351857808786824933	1.74364021823135617595	22.19291680069770222872
	341	1	9.86351857808786824933	0.00000000000000000000	24.65879644521967151150
	342	1	12.32939822260983575575	0.00000000000000000000	27.12467608974163724156
	343	1	12.32939822260983575575	1.74364021823135617595	24.65879644521967151150
	344	1	9.86351857808786824933	1.74364021823135617595	27.12467608974163724156
	345	1	9.86351857808786824933	0.00000000000000000000	29.59055573426360297162
	346	1	12.32939822260983575575	0.00000000000000000000	32.05643537878557225440
	347	1	12.32939822260983575575	1.74364021823135617595	29.59055573426360297162
	348	1	9.86351857808786824933	1.74364021823135617595	32.05643537878557225440
	349	1	9.86351857808786824933	0.00000000000000000000	34.52231502330754153718
	350	1	12.32939822260983575575	0.00000000000000000000	36.98819466782951081996
	351	1	12.32939822260983575575	1.74364021823135617595	34.52231502330754153718
	352	1	9.86351857808786824933	1.74364021823135617595	36.98819466782951081996
	353	1	9.86351857808786824933	0.00000000000000000000	39.45407431235147299731
	354	1	12.32939822260983575575	0.00000000000000000000	41.91995395687344228008
	355	1	12.32939822260983575575	1.74364021823135617595	39.45407431235147299731
	356	1	9.86351857808786824933	1.74364021823135617595	41.91995395687344228008
	357	1	9.86351857808786824933	0.00000000000000000000	44.38583360139540445743
	358	1	12.32939822260983575575	0.00000000000000000000	46.85171324591737374021
	359	1	12.32939822260983575575	1.74364021823135617595	44.38583360139540445743
	360	1	9.86351857808786824933	1.74364021823135617595	46.85171324591737374021
	361	1	9.86351857808786824933	3.48728043646271235190	0.00000000000000000000
	362	1	12.32939822260983575575	3.48728043646271235190	2.46587964452196706233
	363	1	12.32939822260983575575	5.23092065469406897193	0.00000000000000000000
	364	1	9.86351857808786824933	5.23092065469406897193	2.46587964452196706233
	365	1	9.86351857808786824933	3.48728043646271235190	4.93175928904393412466
	366	1	12.32939822260983575575	3.48728043646271235190	7.39763893356590074291
	367	1	12.32939822260983575575	5.23092065469406897193	4.93175928904393412466
	368	1	9.86351857808786824933	5.23092065469406897193	7.39763893356590074291
	369	1	9.86351857808786824933	3.48728043646271235190	9.86351857808786824933
	370	1	12.32939822260983575575	3.48728043646271235190	12.32939822260983575575
	371	1	12.32939822260983575575	5.23092065469406897193	9.86351857808786824933
	372	1	9.86351857808786824933	5.23092065469406897193	12.32939822260983575575
	373	1	9.86351857808786824933	3.48728043646271235190	14.79527786713180148581
	374	1	12.32939822260983575575	3.48728043646271235190	17.26115751165376721588
	375	1	12.32939822260983575575	5.23092065469406897193	14.79527786713180148581
	376	1	9.86351857808786824933	5.23092065469406897193	17.26115751165376721588
	377	1	9.86351857808786824933	3.48728043646271235190	19.72703715617573649865
	378	1	12.32939822260983575575	3.48728043646271235190	22.19291680069770222872
	379	1	12.32939822260983575575	5.23092065469406897193	19.72703715617573649865
	380	1	9.86351857808786824933	5.23092065469406897193	22.19291680069770222872
	381	1	9.86351857808786824933	3.48728043646271235190	24.65879644521967151150
	382	1	12.32939822260983575575	3.48728043646271235190	27.12467608974163724156
	383	1	12.32939822260983575575	5.23092065469406897193	24.65879644521967151150
	384	1	9.86351857808786824933	5.23092065469406897193	27.12467608974163724156
	385	1	9.86351857808786824933	3.48728043646271235190	29.59055573426360297162
	386	1	12.32939822260983575575	3.48728043646271235190	32.05643537878557225440
	387	1	12.32939822260983575575	5.23092065469406897193	29.59055573426360297162
	388	1	9.86351857808786824933	5.23092065469406897193	32.05643537878557225440