ITEM: TIMESTEP
0
ITEM: NUMBER OF ATOMS
640
ITEM: BOX BOUNDS pp pp ss
0 19.727
0 13.9491
-0.00493176 46.8566
ITEM: ATOMS id type x y z 
1 1 0 0 0 
2 1 2.46588 0 2.46588 
3 1 2.46588 1.74364 0 
4 1 0 1.74364 2.46588 
41 1 0 3.48728 0 
42 1 2.46588 3.48728 2.46588 
161 1 4.93176 0 0 
162 1 7.39764 0 2.46588 
163 1 7.39764 1.74364 0 
164 1 4.93176 1.74364 2.46588 
201 1 4.93176 3.48728 0 
202 1 7.39764 3.48728 2.46588 
321 1 9.86352 0 0 
324 1 9.86352 1.74364 2.46588 
361 1 9.86352 3.48728 0 
322 1 12.3294 0 2.46588 
323 1 12.3294 1.74364 0 
362 1 12.3294 3.48728 2.46588 
481 1 14.7953 0 0 
484 1 14.7953 1.74364 2.46588 
521 1 14.7953 3.48728 0 
482 1 17.2612 0 2.46588 
483 1 17.2612 1.74364 0 
522 1 17.2612 3.48728 2.46588 
43 1 2.46588 5.23092 0 
44 1 0 5.23092 2.46588 
81 1 0 6.97456 0 
82 1 2.46588 6.97456 2.46588 
203 1 7.39764 5.23092 0 
204 1 4.93176 5.23092 2.46588 
241 1 4.93176 6.97456 0 
242 1 7.39764 6.97456 2.46588 
364 1 9.86352 5.23092 2.46588 
401 1 9.86352 6.97456 0 
363 1 12.3294 5.23092 0 
402 1 12.3294 6.97456 2.46588 
524 1 14.7953 5.23092 2.46588 
561 1 14.7953 6.97456 0 
523 1 17.2612 5.23092 0 
562 1 17.2612 6.97456 2.46588 
83 1 2.46588 8.7182 0 
84 1 0 8.7182 2.46588 
243 1 7.39764 8.7182 0 
244 1 4.93176 8.7182 2.46588 
404 1 9.86352 8.7182 2.46588 
403 1 12.3294 8.7182 0 
564 1 14.7953 8.7182 2.46588 
563 1 17.2612 8.7182 0 
121 1 0 10.4618 0 
122 1 2.46588 10.4618 2.46588 
123 1 2.46588 12.2055 0 
124 1 0 12.2055 2.46588 
281 1 4.93176 10.4618 0 
282 1 7.39764 10.4618 2.46588 
283 1 7.39764 12.2055 0 
284 1 4.93176 12.2055 2.46588 
441 1 9.86352 10.4618 0 
444 1 9.86352 12.2055 2.46588 
442 1 12.3294 10.4618 2.46588 
443 1 12.3294 12.2055 0 
601 1 14.7953 10.4618 0 
604 1 14.7953 12.2055 2.46588 
602 1 17.2612 10.4618 2.46588 
603 1 17.2612 12.2055 0 
5 1 0 0 4.93176 
7 1 2.46588 1.74364 4.93176 
45 1 0 3.48728 4.93176 
165 1 4.93176 0 4.93176 
167 1 7.39764 1.74364 4.93176 
205 1 4.93176 3.48728 4.93176 
325 1 9.86352 0 4.93176 
365 1 9.86352 3.48728 4.93176 
327 1 12.3294 1.74364 4.93176 
485 1 14.7953 0 4.93176 
525 1 14.7953 3.48728 4.93176 
487 1 17.2612 1.74364 4.93176 
47 1 2.46588 5.23092 4.93176 
85 1 0 6.97456 4.93176 
207 1 7.39764 5.23092 4.93176 
245 1 4.93176 6.97456 4.93176 
405 1 9.86352 6.97456 4.93176 
367 1 12.3294 5.23092 4.93176 
565 1 14.7953 6.97456 4.93176 
527 1 17.2612 5.23092 4.93176 
87 1 2.46588 8.7182 4.93176 
247 1 7.39764 8.7182 4.93176 
407 1 12.3294 8.7182 4.93176 
567 1 17.2612 8.7182 4.93176 
125 1 0 10.4618 4.93176 
127 1 2.46588 12.2055 4.93176 
285 1 4.93176 10.4618 4.93176 
287 1 7.39764 12.2055 4.93176 
445 1 9.86352 10.4618 4.93176 
447 1 12.3294 12.2055 4.93176 
605 1 14.7953 10.4618 4.93176 
607 1 17.2612 12.2055 4.93176 
6 1 2.46588 0 7.39764 
8 1 0 1.74364 7.39764 
9 1 0 0 9.86352 
11 1 2.46588 1.74364 9.86352 
46 1 2.46588 3.48728 7.39764 
49 1 0 3.48728 9.86352 
166 1 7.39764 0 7.39764 
168 1 4.93176 1.74364 7.39764 
169 1 4.93176 0 9.86352 
171 1 7.39764 1.74364 9.86352 
206 1 7.39764 3.48728 7.39764 
209 1 4.93176 3.48728 9.86352 
328 1 9.86352 1.74364 7.39764 
329 1 9.86352 0 9.86352 
369 1 9.86352 3.48728 9.86352 
326 1 12.3294 0 7.39764 
331 1 12.3294 1.74364 9.86352 
366 1 12.3294 3.48728 7.39764 
488 1 14.7953 1.74364 7.39764 
489 1 14.7953 0 9.86352 
529 1 14.7953 3.48728 9.86352 
486 1 17.2612 0 7.39764 
491 1 17.2612 1.74364 9.86352 
526 1 17.2612 3.48728 7.39764 
48 1 0 5.23092 7.39764 
51 1 2.46588 5.23092 9.86352 
86 1 2.46588 6.97456 7.39764 
89 1 0 6.97456 9.86352 
208 1 4.93176 5.23092 7.39764 
211 1 7.39764 5.23092 9.86352 
246 1 7.39764 6.97456 7.39764 
249 1 4.93176 6.97456 9.86352 
368 1 9.86352 5.23092 7.39764 
409 1 9.86352 6.97456 9.86352 
371 1 12.3294 5.23092 9.86352 
406 1 12.3294 6.97456 7.39764 
528 1 14.7953 5.23092 7.39764 
569 1 14.7953 6.97456 9.86352 
531 1 17.2612 5.23092 9.86352 
566 1 17.2612 6.97456 7.39764 
88 1 0 8.7182 7.39764 
91 1 2.46588 8.7182 9.86352 
248 1 4.93176 8.7182 7.39764 
251 1 7.39764 8.7182 9.86352 
408 1 9.86352 8.7182 7.39764 
411 1 12.3294 8.7182 9.86352 
568 1 14.7953 8.7182 7.39764 
571 1 17.2612 8.7182 9.86352 
126 1 2.46588 10.4618 7.39764 
128 1 0 12.2055 7.39764 
129 1 0 10.4618 9.86352 
131 1 2.46588 12.2055 9.86352 
286 1 7.39764 10.4618 7.39764 
288 1 4.93176 12.2055 7.39764 
289 1 4.93176 10.4618 9.86352 
291 1 7.39764 12.2055 9.86352 
448 1 9.86352 12.2055 7.39764 
449 1 9.86352 10.4618 9.86352 
446 1 12.3294 10.4618 7.39764 
451 1 12.3294 12.2055 9.86352 
608 1 14.7953 12.2055 7.39764 
609 1 14.7953 10.4618 9.86352 
606 1 17.2612 10.4618 7.39764 
611 1 17.2612 12.2055 9.86352 
10 1 2.46588 0 12.3294 
12 1 0 1.74364 12.3294 
50 1 2.46588 3.48728 12.3294 
170 1 7.39764 0 12.3294 
172 1 4.93176 1.74364 12.3294 
210 1 7.39764 3.48728 12.3294 
332 1 9.86352 1.74364 12.3294 
330 1 12.3294 0 12.3294 
370 1 12.3294 3.48728 12.3294 
492 1 14.7953 1.74364 12.3294 
490 1 17.2612 0 12.3294 
530 1 17.2612 3.48728 12.3294 
52 1 0 5.23092 12.3294 
90 1 2.46588 6.97456 12.3294 
212 1 4.93176 5.23092 12.3294 
250 1 7.39764 6.97456 12.3294 
372 1 9.86352 5.23092 12.3294 
410 1 12.3294 6.97456 12.3294 
532 1 14.7953 5.23092 12.3294 
570 1 17.2612 6.97456 12.3294 
92 1 0 8.7182 12.3294 
252 1 4.93176 8.7182 12.3294 
412 1 9.86352 8.7182 12.3294 
572 1 14.7953 8.7182 12.3294 
130 1 2.46588 10.4618 12.3294 
132 1 0 12.2055 12.3294 
290 1 7.39764 10.4618 12.3294 
292 1 4.93176 12.2055 12.3294 
452 1 9.86352 12.2055 12.3294 
450 1 12.3294 10.4618 12.3294 
612 1 14.7953 12.2055 12.3294 
610 1 17.2612 10.4618 12.3294 
13 1 0 0 14.7953 
14 1 2.46588 0 17.2612 
15 1 2.46588 1.74364 14.7953 
16 1 0 1.74364 17.2612 
53 1 0 3.48728 14.7953 
54 1 2.46588 3.48728 17.2612 
173 1 4.93176 0 14.7953 
174 1 7.39764 0 17.2612 
175 1 7.39764 1.74364 14.7953 
176 1 4.93176 1.74364 17.2612 
213 1 4.93176 3.48728 14.7953 
214 1 7.39764 3.48728 17.2612 
333 1 9.86352 0 14.7953 
336 1 9.86352 1.74364 17.2612 
373 1 9.86352 3.48728 14.7953 
334 1 12.3294 0 17.2612 
335 1 12.3294 1.74364 14.7953 
374 1 12.3294 3.48728 17.2612 
493 1 14.7953 0 14.7953 
496 1 14.7953 1.74364 17.2612 
533 1 14.7953 3.48728 14.7953 
494 1 17.2612 0 17.2612 
495 1 17.2612 1.74364 14.7953 
534 1 17.2612 3.48728 17.2612 
55 1 2.46588 5.23092 14.7953 
56 1 0 5.23092 17.2612 
93 1 0 6.97456 14.7953 
94 1 2.46588 6.97456 17.2612 
215 1 7.39764 5.23092 14.7953 
216 1 4.93176 5.23092 17.2612 
253 1 4.93176 6.97456 14.7953 
254 1 7.39764 6.97456 17.2612 
376 1 9.86352 5.23092 17.2612 
413 1 9.86352 6.97456 14.7953 
375 1 12.3294 5.23092 14.7953 
414 1 12.3294 6.97456 17.2612 
536 1 14.7953 5.23092 17.2612 
573 1 14.7953 6.97456 14.7953 
535 1 17.2612 5.23092 14.7953 
574 1 17.2612 6.97456 17.2612 
95 1 2.46588 8.7182 14.7953 
96 1 0 8.7182 17.2612 
255 1 7.39764 8.7182 14.7953 
256 1 4.93176 8.7182 17.2612 
416 1 9.86352 8.7182 17.2612 
415 1 12.3294 8.7182 14.7953 
576 1 14.7953 8.7182 17.2612 
575 1 17.2612 8.7182 14.7953 
133 1 0 10.4618 14.7953 
134 1 2.46588 10.4618 17.2612 
135 1 2.46588 12.2055 14.7953 
136 1 0 12.2055 17.2612 
293 1 4.93176 10.4618 14.7953 
294 1 7.39764 10.4618 17.2612 
295 1 7.39764 12.2055 14.7953 
296 1 4.93176 12.2055 17.2612 
453 1 9.86352 10.4618 14.7953 
456 1 9.86352 12.2055 17.2612 
454 1 12.3294 10.4618 17.2612 
455 1 12.3294 12.2055 14.7953 
613 1 14.7953 10.4618 14.7953 
616 1 14.7953 12.2055 17.2612 
614 1 17.2612 10.4618 17.2612 
615 1 17.2612 12.2055 14.7953 
17 1 0 0 19.727 
19 1 2.46588 1.74364 19.727 
57 1 0 3.48728 19.727 
177 1 4.93176 0 19.727 
179 1 7.39764 1.74364 19.727 
217 1 4.93176 3.48728 19.727 
337 1 9.86352 0 19.727 
377 1 9.86352 3.48728 19.727 
339 1 12.3294 1.74364 19.727 
497 1 14.7953 0 19.727 
537 1 14.7953 3.48728 19.727 
499 1 17.2612 1.74364 19.727 
59 1 2.46588 5.23092 19.727 
97 1 0 6.97456 19.727 
219 1 7.39764 5.23092 19.727 
257 1 4.93176 6.97456 19.727 
417 1 9.86352 6.97456 19.727 
379 1 12.3294 5.23092 19.727 
577 1 14.7953 6.97456 19.727 
539 1 17.2612 5.23092 19.727 
99 1 2.46588 8.7182 19.727 
259 1 7.39764 8.7182 19.727 
419 1 12.3294 8.7182 19.727 
579 1 17.2612 8.7182 19.727 
137 1 0 10.4618 19.727 
139 1 2.46588 12.2055 19.727 
297 1 4.93176 10.4618 19.727 
299 1 7.39764 12.2055 19.727 
457 1 9.86352 10.4618 19.727 
459 1 12.3294 12.2055 19.727 
617 1 14.7953 10.4618 19.727 
619 1 17.2612 12.2055 19.727 
18 1 2.46588 0 22.1929 
20 1 0 1.74364 22.1929 
21 1 0 0 24.6588 
23 1 2.46588 1.74364 24.6588 
58 1 2.46588 3.48728 22.1929 
61 1 0 3.48728 24.6588 
178 1 7.39764 0 22.1929 
180 1 4.93176 1.74364 22.1929 
181 1 4.93176 0 24.6588 
183 1 7.39764 1.74364 24.6588 
218 1 7.39764 3.48728 22.1929 
221 1 4.93176 3.48728 24.6588 
340 1 9.86352 1.74364 22.1929 
341 1 9.86352 0 24.6588 
381 1 9.86352 3.48728 24.6588 
338 1 12.3294 0 22.1929 
343 1 12.3294 1.74364 24.6588 
378 1 12.3294 3.48728 22.1929 
500 1 14.7953 1.74364 22.1929 
501 1 14.7953 0 24.6588 
541 1 14.7953 3.48728 24.6588 
498 1 17.2612 0 22.1929 
503 1 17.2612 1.74364 24.6588 
538 1 17.2612 3.48728 22.1929 
60 1 0 5.23092 22.1929 
63 1 2.46588 5.23092 24.6588 
98 1 2.46588 6.97456 22.1929 
101 1 0 6.97456 24.6588 
220 1 4.93176 5.23092 22.1929 
223 1 7.39764 5.23092 24.6588 
258 1 7.39764 6.97456 22.1929 
261 1 4.93176 6.97456 24.6588 
380 1 9.86352 5.23092 22.1929 
421 1 9.86352 6.97456 24.6588 
383 1 12.3294 5.23092 24.6588 
418 1 12.3294 6.97456 22.1929 
540 1 14.7953 5.23092 22.1929 
581 1 14.7953 6.97456 24.6588 
543 1 17.2612 5.23092 24.6588 
578 1 17.2612 6.97456 22.1929 
100 1 0 8.7182 22.1929 
103 1 2.46588 8.7182 24.6588 
260 1 4.93176 8.7182 22.1929 
263 1 7.39764 8.7182 24.6588 
420 1 9.86352 8.7182 22.1929 
423 1 12.3294 8.7182 24.6588 
580 1 14.7953 8.7182 22.1929 
583 1 17.2612 8.7182 24.6588 
138 1 2.46588 10.4618 22.1929 
140 1 0 12.2055 22.1929 
141 1 0 10.4618 24.6588 
143 1 2.46588 12.2055 24.6588 
298 1 7.39764 10.4618 22.1929 
300 1 4.93176 12.2055 22.1929 
301 1 4.93176 10.4618 24.6588 
303 1 7.39764 12.2055 24.6588 
460 1 9.86352 12.2055 22.1929 
461 1 9.86352 10.4618 24.6588 
458 1 12.3294 10.4618 22.1929 
463 1 12.3294 12.2055 24.6588 
620 1 14.7953 12.2055 22.1929 
621 1 14.7953 10.4618 24.6588 
618 1 17.2612 10.4618 22.1929 
623 1 17.2612 12.2055 24.6588 
22 1 2.46588 0 27.1247 
24 1 0 1.74364 27.1247 
62 1 2.46588 3.48728 27.1247 
182 1 7.39764 0 27.1247 
184 1 4.93176 1.74364 27.1247 
222 1 7.39764 3.48728 27.1247 
344 1 9.86352 1.74364 27.1247 
342 1 12.3294 0 27.1247 
382 1 12.3294 3.48728 27.1247 
504 1 14.7953 1.74364 27.1247 
502 1 17.2612 0 27.1247 
542 1 17.2612 3.48728 27.1247 
64 1 0 5.23092 27.1247 
102 1 2.46588 6.97456 27.1247 
224 1 4.93176 5.23092 27.1247 
262 1 7.39764 6.97456 27.1247 
384 1 9.86352 5.23092 27.1247 
422 1 12.3294 6.97456 27.1247 
544 1 14.7953 5.23092 27.1247 
582 1 17.2612 6.97456 27.1247 
104 1 0 8.7182 27.1247 
264 1 4.93176 8.7182 27.1247 
424 1 9.86352 8.7182 27.1247 
584 1 14.7953 8.7182 27.1247 
142 1 2.46588 10.4618 27.1247 
144 1 0 12.2055 27.1247 
302 1 7.39764 10.4618 27.1247 
304 1 4.93176 12.2055 27.1247 
464 1 9.86352 12.2055 27.1247 
462 1 12.3294 10.4618 27.1247 
624 1 14.7953 12.2055 27.1247 
622 1 17.2612 10.4618 27.1247 
25 1 0 0 29.5906 
26 1 2.46588 0 32.0564 
27 1 2.46588 1.74364 29.5906 
28 1 0 1.74364 32.0564 
65 1 0 3.48728 29.5906 
66 1 2.46588 3.48728 32.0564 
185 1 4.93176 0 29.5906 
186 1 7.39764 0 32.0564 
187 1 7.39764 1.74364 29.5906 
188 1 4.93176 1.74364 32.0564 
225 1 4.93176 3.48728 29.5906 
226 1 7.39764 3.48728 32.0564 
345 1 9.86352 0 29.5906 
348 1 9.86352 1.74364 32.0564 
385 1 9.86352 3.48728 29.5906 
346 1 12.3294 0 32.0564 
347 1 12.3294 1.74364 29.5906 
386 1 12.3294 3.48728 32.0564 
505 1 14.7953 0 29.5906 
508 1 14.7953 1.74364 32.0564 
545 1 14.7953 3.48728 29.5906 
506 1 17.2612 0 32.0564 
507 1 17.2612 1.74364 29.5906 
546 1 17.2612 3.48728 32.0564 
67 1 2.46588 5.23092 29.5906 
68 1 0 5.23092 32.0564 
105 1 0 6.97456 29.5906 
106 1 2.46588 6.97456 32.0564 
227 1 7.39764 5.23092 29.5906 
228 1 4.93176 5.23092 32.0564 
265 1 4.93176 6.97456 29.5906 
266 1 7.39764 6.97456 32.0564 
388 1 9.86352 5.23092 32.0564 
425 1 9.86352 6.97456 29.5906 
387 1 12.3294 5.23092 29.5906 
426 1 12.3294 6.97456 32.0564 
548 1 14.7953 5.23092 32.0564 
585 1 14.7953 6.97456 29.5906 
547 1 17.2612 5.23092 29.5906 
586 1 17.2612 6.97456 32.0564 
107 1 2.46588 8.7182 29.5906 
108 1 0 8.7182 32.0564 
267 1 7.39764 8.7182 29.5906 
268 1 4.93176 8.7182 32.0564 
428 1 9.86352 8.7182 32.0564 
427 1 12.3294 8.7182 29.5906 
588 1 14.7953 8.7182 32.0564 
587 1 17.2612 8.7182 29.5906 
145 1 0 10.4618 29.5906 
146 1 2.46588 10.4618 32.0564 
147 1 2.46588 12.2055 29.5906 
148 1 0 12.2055 32.0564 
305 1 4.93176 10.4618 29.5906 
306 1 7.39764 10.4618 32.0564 
307 1 7.39764 12.2055 29.5906 
308 1 4.93176 12.2055 32.0564 
465 1 9.86352 10.4618 29.5906 
468 1 9.86352 12.2055 32.0564 
466 1 12.3294 10.4618 32.0564 
467 1 12.3294 12.2055 29.5906 
625 1 14.7953 10.4618 29.5906 
628 1 14.7953 12.2055 32.0564 
626 1 17.2612 10.4618 32.0564 
627 1 17.2612 12.2055 29.5906 
29 1 0 0 34.5223 
31 1 2.46588 1.74364 34.5223 
69 1 0 3.48728 34.5223 
189 1 4.93176 0 34.5223 
191 1 7.39764 1.74364 34.5223 
229 1 4.93176 3.48728 34.5223 
349 1 9.86352 0 34.5223 
389 1 9.86352 3.48728 34.5223 
351 1 12.3294 1.74364 34.5223 
509 1 14.7953 0 34.5223 
549 1 14.7953 3.48728 34.5223 
511 1 17.2612 1.74364 34.5223 
71 1 2.46588 5.23092 34.5223 
109 1 0 6.97456 34.5223 
231 1 7.39764 5.23092 34.5223 
269 1 4.93176 6.97456 34.5223 
429 1 9.86352 6.97456 34.5223 
391 1 12.3294 5.23092 34.5223 
589 1 14.7953 6.97456 34.5223 
551 1 17.2612 5.23092 34.5223 
111 1 2.46588 8.7182 34.5223 
271 1 7.39764 8.7182 34.5223 
431 1 12.3294 8.7182 34.5223 
591 1 17.2612 8.7182 34.5223 
149 1 0 10.4618 34.5223 
151 1 2.46588 12.2055 34.5223 
309 1 4.93176 10.4618 34.5223 
311 1 7.39764 12.2055 34.5223 
469 1 9.86352 10.4618 34.5223 
471 1 12.3294 12.2055 34.5223 
629 1 14.7953 10.4618 34.5223 
631 1 17.2612 12.2055 34.5223 
30 1 2.46588 0 36.9882 
32 1 0 1.74364 36.9882 
33 1 0 0 39.4541 
35 1 2.46588 1.74364 39.4541 
70 1 2.46588 3.48728 36.9882 
73 1 0 3.48728 39.4541 
190 1 7.39764 0 36.9882 
192 1 4.93176 1.74364 36.9882 
193 1 4.93176 0 39.4541 
195 1 7.39764 1.74364 39.4541 
230 1 7.39764 3.48728 36.9882 
233 1 4.93176 3.48728 39.4541 
352 1 9.86352 1.74364 36.9882 
353 1 9.86352 0 39.4541 
393 1 9.86352 3.48728 39.4541 
350 1 12.3294 0 36.9882 
355 1 12.3294 1.74364 39.4541 
390 1 12.3294 3.48728 36.9882 
512 1 14.7953 1.74364 36.9882 
513 1 14.7953 0 39.4541 
553 1 14.7953 3.48728 39.4541 
510 1 17.2612 0 36.9882 
515 1 17.2612 1.74364 39.4541 
550 1 17.2612 3.48728 36.9882 
72 1 0 5.23092 36.9882 
75 1 2.46588 5.23092 39.4541 
110 1 2.46588 6.97456 36.9882 
113 1 0 6.97456 39.4541 
232 1 4.93176 5.23092 36.9882 
235 1 7.39764 5.23092 39.4541 
270 1 7.39764 6.97456 36.9882 
273 1 4.93176 6.97456 39.4541 
392 1 9.86352 5.23092 36.9882 
433 1 9.86352 6.97456 39.4541 
395 1 12.3294 5.23092 39.4541 
430 1 12.3294 6.97456 36.9882 
552 1 14.7953 5.23092 36.9882 
593 1 14.7953 6.97456 39.4541 
555 1 17.2612 5.23092 39.4541 
590 1 17.2612 6.97456 36.9882 
112 1 0 8.7182 36.9882 
115 1 2.46588 8.7182 39.4541 
272 1 4.93176 8.7182 36.9882 
275 1 7.39764 8.7182 39.4541 
432 1 9.86352 8.7182 36.9882 
435 1 12.3294 8.7182 39.4541 
592 1 14.7953 8.7182 36.9882 
595 1 17.2612 8.7182 39.4541 
150 1 2.46588 10.4618 36.9882 
152 1 0 12.2055 36.9882 
153 1 0 10.4618 39.4541 
155 1 2.46588 12.2055 39.4541 
310 1 7.39764 10.4618 36.9882 
312 1 4.93176 12.2055 36.9882 
313 1 4.93176 10.4618 39.4541 
315 1 7.39764 12.2055 39.4541 
472 1 9.86352 12.2055 36.9882 
473 1 9.86352 10.4618 39.4541 
470 1 12.3294 10.4618 36.9882 
475 1 12.3294 12.2055 39.4541 
632 1 14.7953 12.2055 36.9882 
633 1 14.7953 10.4618 39.4541 
630 1 17.2612 10.4618 36.9882 
635 1 17.2612 12.2055 39.4541 
34 1 2.46588 0 41.92 
36 1 0 1.74364 41.92 
74 1 2.46588 3.48728 41.92 
194 1 7.39764 0 41.92 
196 1 4.93176 1.74364 41.92 
234 1 7.39764 3.48728 41.92 
356 1 9.86352 1.74364 41.92 
354 1 12.3294 0 41.92 
394 1 12.3294 3.48728 41.92 
516 1 14.7953 1.74364 41.92 
514 1 17.2612 0 41.92 
554 1 17.2612 3.48728 41.92 
76 1 0 5.23092 41.92 
114 1 2.46588 6.97456 41.92 
236 1 4.93176 5.23092 41.92 
274 1 7.39764 6.97456 41.92 
396 1 9.86352 5.23092 41.92 
434 1 12.3294 6.97456 41.92 
556 1 14.7953 5.23092 41.92 
594 1 17.2612 6.97456 41.92 
116 1 0 8.7182 41.92 
276 1 4.93176 8.7182 41.92 
436 1 9.86352 8.7182 41.92 
596 1 14.7953 8.7182 41.92 
154 1 2.46588 10.4618 41.92 
156 1 0 12.2055 41.92 
314 1 7.39764 10.4618 41.92 
316 1 4.93176 12.2055 41.92 
476 1 9.86352 12.2055 41.92 
474 1 12.3294 10.4618 41.92 
636 1 14.7953 12.2055 41.92 
634 1 17.2612 10.4618 41.92 
37 1 0 0 44.3858 
38 1 2.46588 0 46.8517 
39 1 2.46588 1.74364 44.3858 
40 1 0 1.74364 46.8517 
77 1 0 3.48728 44.3858 
78 1 2.46588 3.48728 46.8517 
197 1 4.93176 0 44.3858 
198 1 7.39764 0 46.8517 
199 1 7.39764 1.74364 44.3858 
200 1 4.93176 1.74364 46.8517 
237 1 4.93176 3.48728 44.3858 
238 1 7.39764 3.48728 46.8517 
357 1 9.86352 0 44.3858 
360 1 9.86352 1.74364 46.8517 
397 1 9.86352 3.48728 44.3858 
358 1 12.3294 0 46.8517 
359 1 12.3294 1.74364 44.3858 
398 1 12.3294 3.48728 46.8517 
517 1 14.7953 0 44.3858 
520 1 14.7953 1.74364 46.8517 
557 1 14.7953 3.48728 44.3858 
518 1 17.2612 0 46.8517 
519 1 17.2612 1.74364 44.3858 
558 1 17.2612 3.48728 46.8517 
79 1 2.46588 5.23092 44.3858 
80 1 0 5.23092 46.8517 
117 1 0 6.97456 44.3858 
118 1 2.46588 6.97456 46.8517 
239 1 7.39764 5.23092 44.3858 
240 1 4.93176 5.23092 46.8517 
277 1 4.93176 6.97456 44.3858 
278 1 7.39764 6.97456 46.8517 
400 1 9.86352 5.23092 46.8517 
437 1 9.86352 6.97456 44.3858 
399 1 12.3294 5.23092 44.3858 
438 1 12.3294 6.97456 46.8517 
560 1 14.7953 5.23092 46.8517 
597 1 14.7953 6.97456 44.3858 
559 1 17.2612 5.23092 44.3858 
598 1 17.2612 6.97456 46.8517 
119 1 2.46588 8.7182 44.3858 
120 1 0 8.7182 46.8517 
279 1 7.39764 8.7182 44.3858 
280 1 4.93176 8.7182 46.8517 
440 1 9.86352 8.7182 46.8517 
439 1 12.3294 8.7182 44.3858 
600 1 14.7953 8.7182 46.8517 
599 1 17.2612 8.7182 44.3858 
157 1 0 10.4618 44.3858 
158 1 2.46588 10.4618 46.8517 
159 1 2.46588 12.2055 44.3858 
160 1 0 12.2055 46.8517 
317 1 4.93176 10.4618 44.3858 
318 1 7.39764 10.4618 46.8517 
319 1 7.39764 12.2055 44.3858 
320 1 4.93176 12.2055 46.8517 
477 1 9.86352 10.4618 44.3858 
480 1 9.86352 12.2055 46.8517 
478 1 12.3294 10.4618 46.8517 
479 1 12.3294 12.2055 44.3858 
637 1 14.7953 10.4618 44.3858 
640 1 14.7953 12.2055 46.8517 
638 1 17.2612 10.4618 46.8517 
639 1 17.2612 12.2055 44.3858 
ITEM: TIMESTEP
1
ITEM: NUMBER OF ATOMS
640
ITEM: BOX BOUNDS pp pp ss
0 19.727
0 13.9491
-0.00493176 46.8566
ITEM: ATOMS id type x y z 
1 1 -8.4552e-16 3.91874e-16 -0.0715407 
2 1 2.46588 4.19864e-16 2.53742 
3 1 2.46588 1.74364 -0.0715407 
4 1 -9.8451e-16 1.74364 2.53742 
41 1 -8.22355e-16 3.48728 -0.0715407 
42 1 2.46588 3.48728 2.53742 
161 1 4.93176 6.17732e-16 -0.0715407 
162 1 7.39764 3.20448e-16 2.53742 
163 1 7.39764 1.74364 -0.0715407 
164 1 4.93176 1.74364 2.53742 
201 1 4.93176 3.48728 -0.0715407 
202 1 7.39764 3.48728 2.53742 
321 1 9.86352 3.62917e-16 -0.0715407 
324 1 9.86352 1.74364 2.53742 
361 1 9.86352 3.48728 -0.0715407 
322 1 12.3294 1.23546e-16 2.53742 
323 1 12.3294 1.74364 -0.0715407 
362 1 12.3294 3.48728 2.53742 
481 1 14.7953 2.62536e-16 -0.0715407 
484 1 14.7953 1.74364 2.53742 
521 1 14.7953 3.48728 -0.0715407 
482 1 17.2612 1.81459e-16 2.53742 
483 1 17.2612 1.74364 -0.0715407 
522 1 17.2612 3.48728 2.53742 
43 1 2.46588 5.23092 -0.0715407 
44 1 -9.34319e-16 5.23092 2.53742 
81 1 -5.01907e-16 6.97456 -0.0715407 
82 1 2.46588 6.97456 2.53742 
203 1 7.39764 5.23092 -0.0715407 
204 1 4.93176 5.23092 2.53742 
241 1 4.93176 6.97456 -0.0715407 
242 1 7.39764 6.97456 2.53742 
364 1 9.86352 5.23092 2.53742 
401 1 9.86352 6.97456 -0.0715407 
363 1 12.3294 5.23092 -0.0715407 
402 1 12.3294 6.97456 2.53742 
524 1 14.7953 5.23092 2.53742 
561 1 14.7953 6.97456 -0.0715407 
523 1 17.2612 5.23092 -0.0715407 
562 1 17.2612 6.97456 2.53742 
83 1 2.46588 8.7182 -0.0715407 
84 1 -9.22737e-16 8.7182 2.53742 
243 1 7.39764 8.7182 -0.0715407 
244 1 4.93176 8.7182 2.53742 
404 1 9.86352 8.7182 2.53742 
403 1 12.3294 8.7182 -0.0715407 
564 1 14.7953 8.7182 2.53742 
563 1 17.2612 8.7182 -0.0715407 
121 1 -8.53242e-16 10.4618 -0.0715407 
122 1 2.46588 10.4618 2.53742 
123 1 2.46588 12.2055 -0.0715407 
124 1 -6.48618e-16 12.2055 2.53742 
281 1 4.93176 10.4618 -0.0715407 
282 1 7.39764 10.4618 2.53742 
283 1 7.39764 12.2055 -0.0715407 
284 1 4.93176 12.2055 2.53742 
441 1 9.86352 10.4618 -0.0715407 
444 1 9.86352 12.2055 2.53742 
442 1 12.3294 10.4618 2.53742 
443 1 12.3294 12.2055 -0.0715407 
601 1 14.7953 10.4618 -0.0715407 
604 1 14.7953 12.2055 2.53742 
602 1 17.2612 10.4618 2.53742 
603 1 17.2612 12.2055 -0.0715407 
5 1 -7.65408e-16 5.55476e-16 4.93176 
7 1 2.46588 1.74364 4.93176 
45 1 -9.03553e-16 3.48728 4.93176 
165 1 4.93176 -5.30863e-17 4.93176 
167 1 7.39764 1.74364 4.93176 
205 1 4.93176 3.48728 4.93176 
325 1 9.86352 3.3927e-16 4.93176 
365 1 9.86352 3.48728 4.93176 
327 1 12.3294 1.74364 4.93176 
485 1 14.7953 9.31424e-17 4.93176 
525 1 14.7953 3.48728 4.93176 
487 1 17.2612 1.74364 4.93176 
47 1 2.46588 5.23092 4.93176 
85 1 -6.72809e-16 6.97456 4.93176 
207 1 7.39764 5.23092 4.93176 
245 1 4.93176 6.97456 4.93176 
405 1 9.86352 6.97456 4.93176 
367 1 12.3294 5.23092 4.93176 
565 1 14.7953 6.97456 4.93176 
527 1 17.2612 5.23092 4.93176 
87 1 2.46588 8.7182 4.93176 
247 1 7.39764 8.7182 4.93176 
407 1 12.3294 8.7182 4.93176 
567 1 17.2612 8.7182 4.93176 
125 1 -7.83144e-16 10.4618 4.93176 
127 1 2.46588 12.2055 4.93176 
285 1 4.93176 10.4618 4.93176 
287 1 7.39764 12.2055 4.93176 
445 1 9.86352 10.4618 4.93176 
447 1 12.3294 12.2055 4.93176 
605 1 14.7953 10.4618 4.93176 
607 1 17.2612 12.2055 4.93176 
6 1 2.46588 2.72188e-16 7.39764 
8 1 -9.70575e-16 1.74364 7.39764 
9 1 -8.57103e-16 5.81054e-16 9.86352 
11 1 2.46588 1.74364 9.86352 
46 1 2.46588 3.48728 7.39764 
49 1 -9.26899e-16 3.48728 9.86352 
166 1 7.39764 1.82906e-16 7.39764 
168 1 4.93176 1.74364 7.39764 
169 1 4.93176 2.89562e-16 9.86352 
171 1 7.39764 1.74364 9.86352 
206 1 7.39764 3.48728 7.39764 
209 1 4.93176 3.48728 9.86352 
328 1 9.86352 1.74364 7.39764 
329 1 9.86352 2.46127e-16 9.86352 
369 1 9.86352 3.48728 9.86352 
326 1 12.3294 2.60606e-17 7.39764 
331 1 12.3294 1.74364 9.86352 
366 1 12.3294 3.48728 7.39764 
488 1 14.7953 1.74364 7.39764 
489 1 14.7953 1.12929e-16 9.86352 
529 1 14.7953 3.48728 9.86352 
486 1 17.2612 2.5964e-16 7.39764 
491 1 17.2612 1.74364 9.86352 
526 1 17.2612 3.48728 7.39764 
48 1 -8.24165e-16 5.23092 7.39764 
51 1 2.46588 5.23092 9.86352 
86 1 2.46588 6.97456 7.39764 
89 1 -6.93018e-16 6.97456 9.86352 
208 1 4.93176 5.23092 7.39764 
211 1 7.39764 5.23092 9.86352 
246 1 7.39764 6.97456 7.39764 
249 1 4.93176 6.97456 9.86352 
368 1 9.86352 5.23092 7.39764 
409 1 9.86352 6.97456 9.86352 
371 1 12.3294 5.23092 9.86352 
406 1 12.3294 6.97456 7.39764 
528 1 14.7953 5.23092 7.39764 
569 1 14.7953 6.97456 9.86352 
531 1 17.2612 5.23092 9.86352 
566 1 17.2612 6.97456 7.39764 
88 1 -7.71561e-16 8.7182 7.39764 
91 1 2.46588 8.7182 9.86352 
248 1 4.93176 8.7182 7.39764 
251 1 7.39764 8.7182 9.86352 
408 1 9.86352 8.7182 7.39764 
411 1 12.3294 8.7182 9.86352 
568 1 14.7953 8.7182 7.39764 
571 1 17.2612 8.7182 9.86352 
126 1 2.46588 10.4618 7.39764 
128 1 -7.88694e-16 12.2055 7.39764 
129 1 -6.9905e-16 10.4618 9.86352 
131 1 2.46588 12.2055 9.86352 
286 1 7.39764 10.4618 7.39764 
288 1 4.93176 12.2055 7.39764 
289 1 4.93176 10.4618 9.86352 
291 1 7.39764 12.2055 9.86352 
448 1 9.86352 12.2055 7.39764 
449 1 9.86352 10.4618 9.86352 
446 1 12.3294 10.4618 7.39764 
451 1 12.3294 12.2055 9.86352 
608 1 14.7953 12.2055 7.39764 
609 1 14.7953 10.4618 9.86352 
606 1 17.2612 10.4618 7.39764 
611 1 17.2612 12.2055 9.86352 
10 1 2.46588 2.20067e-16 12.3294 
12 1 -9.21771e-16 1.74364 12.3294 
50 1 2.46588 3.48728 12.3294 
170 1 7.39764 -1.35129e-17 12.3294 
172 1 4.93176 1.74364 12.3294 
210 1 7.39764 3.48728 12.3294 
332 1 9.86352 1.74364 12.3294 
330 1 12.3294 6.94948e-17 12.3294 
370 1 12.3294 3.48728 12.3294 
492 1 14.7953 1.74364 12.3294 
490 1 17.2612 2.16689e-16 12.3294 
530 1 17.2612 3.48728 12.3294 
52 1 -7.09306e-16 5.23092 12.3294 
90 1 2.46588 6.97456 12.3294 
212 1 4.93176 5.23092 12.3294 
250 1 7.39764 6.97456 12.3294 
372 1 9.86352 5.23092 12.3294 
410 1 12.3294 6.97456 12.3294 
532 1 14.7953 5.23092 12.3294 
570 1 17.2612 6.97456 12.3294 
92 1 -7.60461e-16 8.7182 12.3294 
252 1 4.93176 8.7182 12.3294 
412 1 9.86352 8.7182 12.3294 
572 1 14.7953 8.7182 12.3294 
130 1 2.46588 10.4618 12.3294 
132 1 -4.75062e-16 12.2055 12.3294 
290 1 7.39764 10.4618 12.3294 
292 1 4.93176 12.2055 12.3294 
452 1 9.86352 12.2055 12.3294 
450 1 12.3294 10.4618 12.3294 
612 1 14.7953 12.2055 12.3294 
610 1 17.2612 10.4618 12.3294 
13 1 -7.03635e-16 2.10415e-16 14.7953 
14 1 2.46588 2.04141e-16 17.2612 
15 1 2.46588 1.74364 14.7953 
16 1 -1.0265e-15 1.74364 17.2612 
53 1 -7.83144e-16 3.48728 14.7953 
54 1 2.46588 3.48728 17.2612 
173 1 4.93176 2.22963e-16 14.7953 
174 1 7.39764 1.67946e-16 17.2612 
175 1 7.39764 1.74364 14.7953 
176 1 4.93176 1.74364 17.2612 
213 1 4.93176 3.48728 14.7953 
214 1 7.39764 3.48728 17.2612 
333 1 9.86352 1.80493e-16 14.7953 
336 1 9.86352 1.74364 17.2612 
373 1 9.86352 3.48728 14.7953 
334 1 12.3294 2.41301e-17 17.2612 
335 1 12.3294 1.74364 14.7953 
374 1 12.3294 3.48728 17.2612 
493 1 14.7953 -1.39955e-16 14.7953 
496 1 14.7953 1.74364 17.2612 
533 1 14.7953 3.48728 14.7953 
494 1 17.2612 1.54916e-16 17.2612 
495 1 17.2612 1.74364 14.7953 
534 1 17.2612 3.48728 17.2612 
55 1 2.46588 5.23092 14.7953 
56 1 -9.46264e-16 5.23092 17.2612 
93 1 -6.11217e-16 6.97456 14.7953 
94 1 2.46588 6.97456 17.2612 
215 1 7.39764 5.23092 14.7953 
216 1 4.93176 5.23092 17.2612 
253 1 4.93176 6.97456 14.7953 
254 1 7.39764 6.97456 17.2612 
376 1 9.86352 5.23092 17.2612 
413 1 9.86352 6.97456 14.7953 
375 1 12.3294 5.23092 14.7953 
414 1 12.3294 6.97456 17.2612 
536 1 14.7953 5.23092 17.2612 
573 1 14.7953 6.97456 14.7953 
535 1 17.2612 5.23092 14.7953 
574 1 17.2612 6.97456 17.2612 
95 1 2.46588 8.7182 14.7953 
96 1 -6.4886e-16 8.7182 17.2612 
255 1 7.39764 8.7182 14.7953 
256 1 4.93176 8.7182 17.2612 
416 1 9.86352 8.7182 17.2612 
415 1 12.3294 8.7182 14.7953 
576 1 14.7953 8.7182 17.2612 
575 1 17.2612 8.7182 14.7953 
133 1 -7.68786e-16 10.4618 14.7953 
134 1 2.46588 10.4618 17.2612 
135 1 2.46588 12.2055 14.7953 
136 1 -8.07395e-16 12.2055 17.2612 
293 1 4.93176 10.4618 14.7953 
294 1 7.39764 10.4618 17.2612 
295 1 7.39764 12.2055 14.7953 
296 1 4.93176 12.2055 17.2612 
453 1 9.86352 10.4618 14.7953 
456 1 9.86352 12.2055 17.2612 
454 1 12.3294 10.4618 17.2612 
455 1 12.3294 12.2055 14.7953 
613 1 14.7953 10.4618 14.7953 
616 1 14.7953 12.2055 17.2612 
614 1 17.2612 10.4618 17.2612 
615 1 17.2612 12.2055 14.7953 
17 1 -8.22355e-16 2.05589e-16 19.727 
19 1 2.46588 1.74364 19.727 
57 1 -1.00677e-15 3.48728 19.727 
177 1 4.93176 2.59158e-16 19.727 
179 1 7.39764 1.74364 19.727 
217 1 4.93176 3.48728 19.727 
337 1 9.86352 3.58574e-16 19.727 
377 1 9.86352 3.48728 19.727 
339 1 12.3294 1.74364 19.727 
497 1 14.7953 8.20425e-17 19.727 
537 1 14.7953 3.48728 19.727 
499 1 17.2612 1.74364 19.727 
59 1 2.46588 5.23092 19.727 
97 1 -8.39789e-16 6.97456 19.727 
219 1 7.39764 5.23092 19.727 
257 1 4.93176 6.97456 19.727 
417 1 9.86352 6.97456 19.727 
379 1 12.3294 5.23092 19.727 
577 1 14.7953 6.97456 19.727 
539 1 17.2612 5.23092 19.727 
99 1 2.46588 8.7182 19.727 
259 1 7.39764 8.7182 19.727 
419 1 12.3294 8.7182 19.727 
579 1 17.2612 8.7182 19.727 
137 1 -8.28388e-16 10.4618 19.727 
139 1 2.46588 12.2055 19.727 
297 1 4.93176 10.4618 19.727 
299 1 7.39764 12.2055 19.727 
457 1 9.86352 10.4618 19.727 
459 1 12.3294 12.2055 19.727 
617 1 14.7953 10.4618 19.727 
619 1 17.2612 12.2055 19.727 
18 1 2.46588 3.412e-16 22.1929 
20 1 -9.69971e-16 1.74364 22.1929 
21 1 -8.49381e-16 1.83389e-16 24.6588 
23 1 2.46588 1.74364 24.6588 
58 1 2.46588 3.48728 22.1929 
61 1 -9.65447e-16 3.48728 24.6588 
178 1 7.39764 2.82805e-16 22.1929 
180 1 4.93176 1.74364 22.1929 
181 1 4.93176 2.75566e-16 24.6588 
183 1 7.39764 1.74364 24.6588 
218 1 7.39764 3.48728 22.1929 
221 1 4.93176 3.48728 24.6588 
340 1 9.86352 1.74364 22.1929 
341 1 9.86352 3.95252e-16 24.6588 
381 1 9.86352 3.48728 24.6588 
338 1 12.3294 8.87989e-17 22.1929 
343 1 12.3294 1.74364 24.6588 
378 1 12.3294 3.48728 22.1929 
500 1 14.7953 1.74364 22.1929 
501 1 14.7953 -1.68428e-16 24.6588 
541 1 14.7953 3.48728 24.6588 
498 1 17.2612 2.08967e-16 22.1929 
503 1 17.2612 1.74364 24.6588 
538 1 17.2612 3.48728 22.1929 
60 1 -8.6404e-16 5.23092 22.1929 
63 1 2.46588 5.23092 24.6588 
98 1 2.46588 6.97456 22.1929 
101 1 -8.61989e-16 6.97456 24.6588 
220 1 4.93176 5.23092 22.1929 
223 1 7.39764 5.23092 24.6588 
258 1 7.39764 6.97456 22.1929 
261 1 4.93176 6.97456 24.6588 
380 1 9.86352 5.23092 22.1929 
421 1 9.86352 6.97456 24.6588 
383 1 12.3294 5.23092 24.6588 
418 1 12.3294 6.97456 22.1929 
540 1 14.7953 5.23092 22.1929 
581 1 14.7953 6.97456 24.6588 
543 1 17.2612 5.23092 24.6588 
578 1 17.2612 6.97456 22.1929 
100 1 -6.8047e-16 8.7182 22.1929 
103 1 2.46588 8.7182 24.6588 
260 1 4.93176 8.7182 22.1929 
263 1 7.39764 8.7182 24.6588 
420 1 9.86352 8.7182 22.1929 
423 1 12.3294 8.7182 24.6588 
580 1 14.7953 8.7182 22.1929 
583 1 17.2612 8.7182 24.6588 
138 1 2.46588 10.4618 22.1929 
140 1 -7.72225e-16 12.2055 22.1929 
141 1 -6.67922e-16 10.4618 24.6588 
143 1 2.46588 12.2055 24.6588 
298 1 7.39764 10.4618 22.1929 
300 1 4.93176 12.2055 22.1929 
301 1 4.93176 10.4618 24.6588 
303 1 7.39764 12.2055 24.6588 
460 1 9.86352 12.2055 22.1929 
461 1 9.86352 10.4618 24.6588 
458 1 12.3294 10.4618 22.1929 
463 1 12.3294 12.2055 24.6588 
620 1 14.7953 12.2055 22.1929 
621 1 14.7953 10.4618 24.6588 
618 1 17.2612 10.4618 22.1929 
623 1 17.2612 12.2055 24.6588 
22 1 2.46588 1.81459e-16 27.1247 
24 1 -8.34963e-16 1.74364 27.1247 