 
 64 atoms 
 
 1 atom types
 0.00000000000000000000 11.28835231985791232034 xlo xhi
 0.00000000000000000000 10.42001752602268815906 ylo yhi
 0.00000000000000000000 10.85418492294030023970 zlo zhi
 0.00000000000000063804 0.00000000000000066463 0.00000000000000066463 xy xz yz
 
 Atoms 
 
	1	1	0.00000000000000000000	0.00000000000000000000	0.00000000000000000000
	2	1	2.71354623073507505993	2.71354623073507505993	0.00000000000000000000
	3	1	2.71354623073507505993	0.00000000000000016616	2.71354623073507505993
	4	1	0.00000000000000033231	2.71354623073507505993	2.71354623073507505993
	5	1	1.35677311536753752996	1.35677311536753752996	1.35677311536753752996
	6	1	4.07031934610261281193	4.07031934610261281193	1.35677311536753752996
	7	1	4.07031934610261281193	1.35677311536753775201	4.07031934610261281193
	8	1	1.35677311536753797405	4.07031934610261281193	4.07031934610261281193
	9	1	0.00000000000000033231	0.00000000000000033231	5.42709246147015011985
	10	1	2.71354623073507550401	2.71354623073507550401	5.42709246147015011985
	11	1	2.71354623073507550401	0.00000000000000049847	8.14063869220522562387
	12	1	0.00000000000000066463	2.71354623073507550401	8.14063869220522562387
	13	1	1.35677311536753797405	1.35677311536753797405	6.78386557683768742777
	14	1	4.07031934610261281193	4.07031934610261281193	6.78386557683768742777
	15	1	4.07031934610261370011	1.35677311536753819610	9.49741180757276381996
	16	1	1.35677311536753841814	4.07031934610261370011	9.49741180757276381996
	17	1	0.00000000000000033231	5.42709246147015011985	0.00000000000000000000
	18	1	2.71354623073507550401	8.14063869220522562387	0.00000000000000000000
	19	1	2.71354623073507550401	5.42709246147015011985	2.71354623073507505993
	20	1	0.00000000000000066463	8.14063869220522562387	2.71354623073507505993
	21	1	1.35677311536753797405	6.78386557683768742777	1.35677311536753752996
	22	1	4.07031934610261370011	9.49741180757276381996	1.35677311536753752996
	23	1	4.07031934610261281193	6.78386557683768742777	4.07031934610261281193
	24	1	1.35677311536753841814	9.49741180757276381996	4.07031934610261281193
	25	1	0.00000000000000066463	5.42709246147015011985	5.42709246147015011985
	26	1	2.71354623073507594810	8.14063869220522562387	5.42709246147015011985
	27	1	2.71354623073507594810	5.42709246147015100803	8.14063869220522562387
	28	1	0.00000000000000099694	8.14063869220522562387	8.14063869220522562387
	29	1	1.35677311536753841814	6.78386557683768742777	6.78386557683768742777
	30	1	4.07031934610261370011	9.49741180757276381996	6.78386557683768742777
	31	1	4.07031934610261370011	6.78386557683768831595	9.49741180757276381996
	32	1	1.35677311536753886223	9.49741180757276381996	9.49741180757276381996
	33	1	5.42709246147015011985	0.00000000000000000000	0.00000000000000000000
	34	1	8.14063869220522562387	2.71354623073507505993	0.00000000000000000000
	35	1	8.14063869220522562387	0.00000000000000016616	2.71354623073507505993
	36	1	5.42709246147015011985	2.71354623073507505993	2.71354623073507505993
	37	1	6.78386557683768742777	1.35677311536753752996	1.35677311536753752996
	38	1	9.49741180757276381996	4.07031934610261281193	1.35677311536753752996
	39	1	9.49741180757276381996	1.35677311536753775201	4.07031934610261281193
	40	1	6.78386557683768742777	4.07031934610261281193	4.07031934610261281193
	41	1	5.42709246147015011985	0.00000000000000033231	5.42709246147015011985
	42	1	8.14063869220522562387	2.71354623073507550401	5.42709246147015011985
	43	1	8.14063869220522562387	0.00000000000000049847	8.14063869220522562387
	44	1	5.42709246147015100803	2.71354623073507550401	8.14063869220522562387
	45	1	6.78386557683768742777	1.35677311536753797405	6.78386557683768742777
	46	1	9.49741180757276381996	4.07031934610261281193	6.78386557683768742777
	47	1	9.49741180757276381996	1.35677311536753819610	9.49741180757276381996
	48	1	6.78386557683768831595	4.07031934610261370011	9.49741180757276381996
	49	1	5.42709246147015011985	5.42709246147015011985	0.00000000000000000000
	50	1	8.14063869220522562387	8.14063869220522562387	0.00000000000000000000
	51	1	8.14063869220522562387	5.42709246147015011985	2.71354623073507505993
	52	1	5.42709246147015100803	8.14063869220522562387	2.71354623073507505993
	53	1	6.78386557683768742777	6.78386557683768742777	1.35677311536753752996
	54	1	9.49741180757276381996	9.49741180757276381996	1.35677311536753752996
	55	1	9.49741180757276381996	6.78386557683768742777	4.07031934610261281193
	56	1	6.78386557683768831595	9.49741180757276381996	4.07031934610261281193
	57	1	5.42709246147015011985	5.42709246147015011985	5.42709246147015011985
	58	1	8.14063869220522562387	8.14063869220522562387	5.42709246147015011985
	59	1	8.14063869220522562387	5.42709246147015100803	8.14063869220522562387
	60	1	5.42709246147015189621	8.14063869220522562387	8.14063869220522562387
	61	1	6.78386557683768742777	6.78386557683768742777	6.78386557683768742777
	62	1	9.49741180757276381996	9.49741180757276381996	6.78386557683768742777
	63	1	9.49741180757276381996	6.78386557683768831595	9.49741180757276381996
	64	1	6.78386557683768920413	9.49741180757276381996	9.49741180757276381996
