 
 125 atoms 
 
 1 atom types
 0.00000000000000000000 17.43640218231356087131 xlo xhi
 0.00000000000000000000 17.43640218231356087131 ylo yhi
 0.00000000000000000000 17.43640218231356087131 zlo zhi
 
 Atoms 
 
	1	1	0.00000000000000000000	0.00000000000000000000	0.00000000000000000000
	2	1	0.00000000000000000000	0.00000000000000000000	3.48728043646271235190
	3	1	0.00000000000000000000	0.00000000000000000000	6.97456087292542470379
	4	1	0.00000000000000000000	0.00000000000000000000	10.46184130938813794387
	5	1	0.00000000000000000000	0.00000000000000000000	13.94912174585084940759
	6	1	0.00000000000000000000	3.48728043646271235190	0.00000000000000000000
	7	1	0.00000000000000000000	3.48728043646271235190	3.48728043646271235190
	8	1	0.00000000000000000000	3.48728043646271235190	6.97456087292542470379
	9	1	0.00000000000000000000	3.48728043646271235190	10.46184130938813794387
	10	1	0.00000000000000000000	3.48728043646271235190	13.94912174585084940759
	11	1	0.00000000000000000000	6.97456087292542470379	0.00000000000000000000
	12	1	0.00000000000000000000	6.97456087292542470379	3.48728043646271235190
	13	1	0.00000000000000000000	6.97456087292542470379	6.97456087292542470379
	14	1	0.00000000000000000000	6.97456087292542470379	10.46184130938813794387
	15	1	0.00000000000000000000	6.97456087292542470379	13.94912174585084940759
	16	1	0.00000000000000000000	10.46184130938813794387	0.00000000000000000000
	17	1	0.00000000000000000000	10.46184130938813794387	3.48728043646271235190
	18	1	0.00000000000000000000	10.46184130938813794387	6.97456087292542470379
	19	1	0.00000000000000000000	10.46184130938813794387	10.46184130938813794387
	20	1	0.00000000000000000000	10.46184130938813794387	13.94912174585084940759
	21	1	0.00000000000000000000	13.94912174585084940759	0.00000000000000000000
	22	1	0.00000000000000000000	13.94912174585084940759	3.48728043646271235190
	23	1	0.00000000000000000000	13.94912174585084940759	6.97456087292542470379
	24	1	0.00000000000000000000	13.94912174585084940759	10.46184130938813794387
	25	1	0.00000000000000000000	13.94912174585084940759	13.94912174585084940759
	26	1	3.48728043646271235190	0.00000000000000000000	0.00000000000000000000
	27	1	3.48728043646271235190	0.00000000000000000000	3.48728043646271235190
	28	1	3.48728043646271235190	0.00000000000000000000	6.97456087292542470379
	29	1	3.48728043646271235190	0.00000000000000000000	10.46184130938813794387
	30	1	3.48728043646271235190	0.00000000000000000000	13.94912174585084940759
	31	1	3.48728043646271235190	3.48728043646271235190	0.00000000000000000000
	32	1	3.48728043646271235190	3.48728043646271235190	3.48728043646271235190
	33	1	3.48728043646271235190	3.48728043646271235190	6.97456087292542470379
	34	1	3.48728043646271235190	3.48728043646271235190	10.46184130938813794387
	35	1	3.48728043646271235190	3.48728043646271235190	13.94912174585084940759
	36	1	3.48728043646271235190	6.97456087292542470379	0.00000000000000000000
	37	1	3.48728043646271235190	6.97456087292542470379	3.48728043646271235190
	38	1	3.48728043646271235190	6.97456087292542470379	6.97456087292542470379
	39	1	3.48728043646271235190	6.97456087292542470379	10.46184130938813794387
	40	1	3.48728043646271235190	6.97456087292542470379	13.94912174585084940759
	41	1	3.48728043646271235190	10.46184130938813794387	0.00000000000000000000
	42	1	3.48728043646271235190	10.46184130938813794387	3.48728043646271235190
	43	1	3.48728043646271235190	10.46184130938813794387	6.97456087292542470379
	44	1	3.48728043646271235190	10.46184130938813794387	10.46184130938813794387
	45	1	3.48728043646271235190	10.46184130938813794387	13.94912174585084940759
	46	1	3.48728043646271235190	13.94912174585084940759	0.00000000000000000000
	47	1	3.48728043646271235190	13.94912174585084940759	3.48728043646271235190
	48	1	3.48728043646271235190	13.94912174585084940759	6.97456087292542470379
	49	1	3.48728043646271235190	13.94912174585084940759	10.46184130938813794387
	50	1	3.48728043646271235190	13.94912174585084940759	13.94912174585084940759
	51	1	6.97456087292542470379	0.00000000000000000000	0.00000000000000000000
	52	1	6.97456087292542470379	0.00000000000000000000	3.48728043646271235190
	53	1	6.97456087292542470379	0.00000000000000000000	6.97456087292542470379
	54	1	6.97456087292542470379	0.00000000000000000000	10.46184130938813794387
	55	1	6.97456087292542470379	0.00000000000000000000	13.94912174585084940759
	56	1	6.97456087292542470379	3.48728043646271235190	0.00000000000000000000
	57	1	6.97456087292542470379	3.48728043646271235190	3.48728043646271235190
	58	1	6.97456087292542470379	3.48728043646271235190	6.97456087292542470379
	59	1	6.97456087292542470379	3.48728043646271235190	10.46184130938813794387
	60	1	6.97456087292542470379	3.48728043646271235190	13.94912174585084940759
	61	1	6.97456087292542470379	6.97456087292542470379	0.00000000000000000000
	62	1	6.97456087292542470379	6.97456087292542470379	3.48728043646271235190
	63	1	6.97456087292542470379	6.97456087292542470379	6.97456087292542470379
	64	1	6.97456087292542470379	6.97456087292542470379	10.46184130938813794387
	65	1	6.97456087292542470379	6.97456087292542470379	13.94912174585084940759
	66	1	6.97456087292542470379	10.46184130938813794387	0.00000000000000000000
	67	1	6.97456087292542470379	10.46184130938813794387	3.48728043646271235190
	68	1	6.97456087292542470379	10.46184130938813794387	6.97456087292542470379
	69	1	6.97456087292542470379	10.46184130938813794387	10.46184130938813794387
	70	1	6.97456087292542470379	10.46184130938813794387	13.94912174585084940759
	71	1	6.97456087292542470379	13.94912174585084940759	0.00000000000000000000
	72	1	6.97456087292542470379	13.94912174585084940759	3.48728043646271235190
	73	1	6.97456087292542470379	13.94912174585084940759	6.97456087292542470379
	74	1	6.97456087292542470379	13.94912174585084940759	10.46184130938813794387
	75	1	6.97456087292542470379	13.94912174585084940759	13.94912174585084940759
	76	1	10.46184130938813794387	0.00000000000000000000	0.00000000000000000000
	77	1	10.46184130938813794387	0.00000000000000000000	3.48728043646271235190
	78	1	10.46184130938813794387	0.00000000000000000000	6.97456087292542470379
	79	1	10.46184130938813794387	0.00000000000000000000	10.46184130938813794387
	80	1	10.46184130938813794387	0.00000000000000000000	13.94912174585084940759
	81	1	10.46184130938813794387	3.48728043646271235190	0.00000000000000000000
	82	1	10.46184130938813794387	3.48728043646271235190	3.48728043646271235190
	83	1	10.46184130938813794387	3.48728043646271235190	6.97456087292542470379
	84	1	10.46184130938813794387	3.48728043646271235190	10.46184130938813794387
	85	1	10.46184130938813794387	3.48728043646271235190	13.94912174585084940759
	86	1	10.46184130938813794387	6.97456087292542470379	0.00000000000000000000
	87	1	10.46184130938813794387	6.97456087292542470379	3.48728043646271235190
	88	1	10.46184130938813794387	6.97456087292542470379	6.97456087292542470379
	89	1	10.46184130938813794387	6.97456087292542470379	10.46184130938813794387
	90	1	10.46184130938813794387	6.97456087292542470379	13.94912174585084940759
	91	1	10.46184130938813794387	10.46184130938813794387	0.00000000000000000000
	92	1	10.46184130938813794387	10.46184130938813794387	3.48728043646271235190
	93	1	10.46184130938813794387	10.46184130938813794387	6.97456087292542470379
	94	1	10.46184130938813794387	10.46184130938813794387	10.46184130938813794387
	95	1	10.46184130938813794387	10.46184130938813794387	13.94912174585084940759
	96	1	10.46184130938813794387	13.94912174585084940759	0.00000000000000000000
	97	1	10.46184130938813794387	13.94912174585084940759	3.48728043646271235190
	98	1	10.46184130938813794387	13.94912174585084940759	6.97456087292542470379
	99	1	10.46184130938813794387	13.94912174585084940759	10.46184130938813794387
	100	1	10.46184130938813794387	13.94912174585084940759	13.94912174585084940759
	101	1	13.94912174585084940759	0.00000000000000000000	0.00000000000000000000
	102	1	13.94912174585084940759	0.00000000000000000000	3.48728043646271235190
	103	1	13.94912174585084940759	0.00000000000000000000	6.97456087292542470379
	104	1	13.94912174585084940759	0.00000000000000000000	10.46184130938813794387
	105	1	13.94912174585084940759	0.00000000000000000000	13.94912174585084940759
	106	1	13.94912174585084940759	3.48728043646271235190	0.00000000000000000000
	107	1	13.94912174585084940759	3.48728043646271235190	3.48728043646271235190
	108	1	13.94912174585084940759	3.48728043646271235190	6.97456087292542470379
	109	1	13.94912174585084940759	3.48728043646271235190	10.46184130938813794387
	110	1	13.94912174585084940759	3.48728043646271235190	13.94912174585084940759
	111	1	13.94912174585084940759	6.97456087292542470379	0.00000000000000000000
	112	1	13.94912174585084940759	6.97456087292542470379	3.48728043646271235190
	113	1	13.94912174585084940759	6.97456087292542470379	6.97456087292542470379
	114	1	13.94912174585084940759	6.97456087292542470379	10.46184130938813794387
	115	1	13.94912174585084940759	6.97456087292542470379	13.94912174585084940759
	116	1	13.94912174585084940759	10.46184130938813794387	0.00000000000000000000
	117	1	13.94912174585084940759	10.46184130938813794387	3.48728043646271235190
	118	1	13.94912174585084940759	10.46184130938813794387	6.97456087292542470379
	119	1	13.94912174585084940759	10.46184130938813794387	10.46184130938813794387
	120	1	13.94912174585084940759	10.46184130938813794387	13.94912174585084940759
	121	1	13.94912174585084940759	13.94912174585084940759	0.00000000000000000000
	122	1	13.94912174585084940759	13.94912174585084940759	3.48728043646271235190
	123	1	13.94912174585084940759	13.94912174585084940759	6.97456087292542470379
	124	1	13.94912174585084940759	13.94912174585084940759	10.46184130938813794387
	125	1	13.94912174585084940759	13.94912174585084940759	13.94912174585084940759
