 
 1024 atoms 
 
 1 atom types
 0.00000000000000000000 27.89824349170169881518 xlo xhi
 0.00000000000000000000 27.89824349170169881518 ylo yhi
 0.00000000000000000000 27.89824349170169881518 zlo zhi
 0.00000000000000000000 0.00000000000000000000 0.00000000000000000000 xy xz yz
 
 Atoms 
 
	1	1	0.00000000000000000000	0.00000000000000000000	0.00000000000000000000
	2	1	1.74364021823135617595	1.74364021823135617595	1.74364021823135617595
	3	1	0.00000000000000000000	0.00000000000000000000	3.48728043646271235190
	4	1	1.74364021823135617595	1.74364021823135617595	5.23092065469406897193
	5	1	0.00000000000000000000	0.00000000000000000000	6.97456087292542470379
	6	1	1.74364021823135617595	1.74364021823135617595	8.71820109115678043565
	7	1	0.00000000000000000000	0.00000000000000000000	10.46184130938813794387
	8	1	1.74364021823135617595	1.74364021823135617595	12.20548152761949367573
	9	1	0.00000000000000000000	0.00000000000000000000	13.94912174585084940759
	10	1	1.74364021823135617595	1.74364021823135617595	15.69276196408220513945
	11	1	0.00000000000000000000	0.00000000000000000000	17.43640218231356087131
	12	1	1.74364021823135617595	1.74364021823135617595	19.18004240054491660317
	13	1	0.00000000000000000000	0.00000000000000000000	20.92368261877627588774
	14	1	1.74364021823135617595	1.74364021823135617595	22.66732283700763161960
	15	1	0.00000000000000000000	0.00000000000000000000	24.41096305523898735146
	16	1	1.74364021823135617595	1.74364021823135617595	26.15460327347034308332
	17	1	0.00000000000000000000	3.48728043646271235190	0.00000000000000000000
	18	1	1.74364021823135617595	5.23092065469406897193	1.74364021823135617595
	19	1	0.00000000000000000000	3.48728043646271235190	3.48728043646271235190
	20	1	1.74364021823135617595	5.23092065469406897193	5.23092065469406897193
	21	1	0.00000000000000000000	3.48728043646271235190	6.97456087292542470379
	22	1	1.74364021823135617595	5.23092065469406897193	8.71820109115678043565
	23	1	0.00000000000000000000	3.48728043646271235190	10.46184130938813794387
	24	1	1.74364021823135617595	5.23092065469406897193	12.20548152761949367573
	25	1	0.00000000000000000000	3.48728043646271235190	13.94912174585084940759
	26	1	1.74364021823135617595	5.23092065469406897193	15.69276196408220513945
	27	1	0.00000000000000000000	3.48728043646271235190	17.43640218231356087131
	28	1	1.74364021823135617595	5.23092065469406897193	19.18004240054491660317
	29	1	0.00000000000000000000	3.48728043646271235190	20.92368261877627588774
	30	1	1.74364021823135617595	5.23092065469406897193	22.66732283700763161960
	31	1	0.00000000000000000000	3.48728043646271235190	24.41096305523898735146
	32	1	1.74364021823135617595	5.23092065469406897193	26.15460327347034308332
	33	1	0.00000000000000000000	6.97456087292542470379	0.00000000000000000000
	34	1	1.74364021823135617595	8.71820109115678043565	1.74364021823135617595
	35	1	0.00000000000000000000	6.97456087292542470379	3.48728043646271235190
	36	1	1.74364021823135617595	8.71820109115678043565	5.23092065469406897193
	37	1	0.00000000000000000000	6.97456087292542470379	6.97456087292542470379
	38	1	1.74364021823135617595	8.71820109115678043565	8.71820109115678043565
	39	1	0.00000000000000000000	6.97456087292542470379	10.46184130938813794387
	40	1	1.74364021823135617595	8.71820109115678043565	12.20548152761949367573
	41	1	0.00000000000000000000	6.97456087292542470379	13.94912174585084940759
	42	1	1.74364021823135617595	8.71820109115678043565	15.69276196408220513945
	43	1	0.00000000000000000000	6.97456087292542470379	17.43640218231356087131
	44	1	1.74364021823135617595	8.71820109115678043565	19.18004240054491660317
	45	1	0.00000000000000000000	6.97456087292542470379	20.92368261877627588774
	46	1	1.74364021823135617595	8.71820109115678043565	22.66732283700763161960
	47	1	0.00000000000000000000	6.97456087292542470379	24.41096305523898735146
	48	1	1.74364021823135617595	8.71820109115678043565	26.15460327347034308332
	49	1	0.00000000000000000000	10.46184130938813794387	0.00000000000000000000
	50	1	1.74364021823135617595	12.20548152761949367573	1.74364021823135617595
	51	1	0.00000000000000000000	10.46184130938813794387	3.48728043646271235190
	52	1	1.74364021823135617595	12.20548152761949367573	5.23092065469406897193
	53	1	0.00000000000000000000	10.46184130938813794387	6.97456087292542470379
	54	1	1.74364021823135617595	12.20548152761949367573	8.71820109115678043565
	55	1	0.00000000000000000000	10.46184130938813794387	10.46184130938813794387
	56	1	1.74364021823135617595	12.20548152761949367573	12.20548152761949367573
	57	1	0.00000000000000000000	10.46184130938813794387	13.94912174585084940759
	58	1	1.74364021823135617595	12.20548152761949367573	15.69276196408220513945
	59	1	0.00000000000000000000	10.46184130938813794387	17.43640218231356087131
	60	1	1.74364021823135617595	12.20548152761949367573	19.18004240054491660317
	61	1	0.00000000000000000000	10.46184130938813794387	20.92368261877627588774
	62	1	1.74364021823135617595	12.20548152761949367573	22.66732283700763161960
	63	1	0.00000000000000000000	10.46184130938813794387	24.41096305523898735146
	64	1	1.74364021823135617595	12.20548152761949367573	26.15460327347034308332
	65	1	0.00000000000000000000	13.94912174585084940759	0.00000000000000000000
	66	1	1.74364021823135617595	15.69276196408220513945	1.74364021823135617595
	67	1	0.00000000000000000000	13.94912174585084940759	3.48728043646271235190
	68	1	1.74364021823135617595	15.69276196408220513945	5.23092065469406897193
	69	1	0.00000000000000000000	13.94912174585084940759	6.97456087292542470379
	70	1	1.74364021823135617595	15.69276196408220513945	8.71820109115678043565
	71	1	0.00000000000000000000	13.94912174585084940759	10.46184130938813794387
	72	1	1.74364021823135617595	15.69276196408220513945	12.20548152761949367573
	73	1	0.00000000000000000000	13.94912174585084940759	13.94912174585084940759
	74	1	1.74364021823135617595	15.69276196408220513945	15.69276196408220513945
	75	1	0.00000000000000000000	13.94912174585084940759	17.43640218231356087131
	76	1	1.74364021823135617595	15.69276196408220513945	19.18004240054491660317
	77	1	0.00000000000000000000	13.94912174585084940759	20.92368261877627588774
	78	1	1.74364021823135617595	15.69276196408220513945	22.66732283700763161960
	79	1	0.00000000000000000000	13.94912174585084940759	24.41096305523898735146
	80	1	1.74364021823135617595	15.69276196408220513945	26.15460327347034308332
	81	1	0.00000000000000000000	17.43640218231356087131	0.00000000000000000000
	82	1	1.74364021823135617595	19.18004240054491660317	1.74364021823135617595
	83	1	0.00000000000000000000	17.43640218231356087131	3.48728043646271235190
	84	1	1.74364021823135617595	19.18004240054491660317	5.23092065469406897193
	85	1	0.00000000000000000000	17.43640218231356087131	6.97456087292542470379
	86	1	1.74364021823135617595	19.18004240054491660317	8.71820109115678043565
	87	1	0.00000000000000000000	17.43640218231356087131	10.46184130938813794387
	88	1	1.74364021823135617595	19.18004240054491660317	12.20548152761949367573
	89	1	0.00000000000000000000	17.43640218231356087131	13.94912174585084940759
	90	1	1.74364021823135617595	19.18004240054491660317	15.69276196408220513945
	91	1	0.00000000000000000000	17.43640218231356087131	17.43640218231356087131
	92	1	1.74364021823135617595	19.18004240054491660317	19.18004240054491660317
	93	1	0.00000000000000000000	17.43640218231356087131	20.92368261877627588774
	94	1	1.74364021823135617595	19.18004240054491660317	22.66732283700763161960
	95	1	0.00000000000000000000	17.43640218231356087131	24.41096305523898735146
	96	1	1.74364021823135617595	19.18004240054491660317	26.15460327347034308332
	97	1	0.00000000000000000000	20.92368261877627588774	0.00000000000000000000
	98	1	1.74364021823135617595	22.66732283700763161960	1.74364021823135617595
	99	1	0.00000000000000000000	20.92368261877627588774	3.48728043646271235190
	100	1	1.74364021823135617595	22.66732283700763161960	5.23092065469406897193
	101	1	0.00000000000000000000	20.92368261877627588774	6.97456087292542470379
	102	1	1.74364021823135617595	22.66732283700763161960	8.71820109115678043565
	103	1	0.00000000000000000000	20.92368261877627588774	10.46184130938813794387
	104	1	1.74364021823135617595	22.66732283700763161960	12.20548152761949367573
	105	1	0.00000000000000000000	20.92368261877627588774	13.94912174585084940759
	106	1	1.74364021823135617595	22.66732283700763161960	15.69276196408220513945
	107	1	0.00000000000000000000	20.92368261877627588774	17.43640218231356087131
	108	1	1.74364021823135617595	22.66732283700763161960	19.18004240054491660317
	109	1	0.00000000000000000000	20.92368261877627588774	20.92368261877627588774
	110	1	1.74364021823135617595	22.66732283700763161960	22.66732283700763161960
	111	1	0.00000000000000000000	20.92368261877627588774	24.41096305523898735146
	112	1	1.74364021823135617595	22.66732283700763161960	26.15460327347034308332
	113	1	0.00000000000000000000	24.41096305523898735146	0.00000000000000000000
	114	1	1.74364021823135617595	26.15460327347034308332	1.74364021823135617595
	115	1	0.00000000000000000000	24.41096305523898735146	3.48728043646271235190
	116	1	1.74364021823135617595	26.15460327347034308332	5.23092065469406897193
	117	1	0.00000000000000000000	24.41096305523898735146	6.97456087292542470379
	118	1	1.74364021823135617595	26.15460327347034308332	8.71820109115678043565
	119	1	0.00000000000000000000	24.41096305523898735146	10.46184130938813794387
	120	1	1.74364021823135617595	26.15460327347034308332	12.20548152761949367573
	121	1	0.00000000000000000000	24.41096305523898735146	13.94912174585084940759
	122	1	1.74364021823135617595	26.15460327347034308332	15.69276196408220513945
	123	1	0.00000000000000000000	24.41096305523898735146	17.43640218231356087131
	124	1	1.74364021823135617595	26.15460327347034308332	19.18004240054491660317
	125	1	0.00000000000000000000	24.41096305523898735146	20.92368261877627588774
	126	1	1.74364021823135617595	26.15460327347034308332	22.66732283700763161960
	127	1	0.00000000000000000000	24.41096305523898735146	24.41096305523898735146
	128	1	1.74364021823135617595	26.15460327347034308332	26.15460327347034308332
	129	1	3.48728043646271235190	0.00000000000000000000	0.00000000000000000000
	130	1	5.23092065469406897193	1.74364021823135617595	1.74364021823135617595
	131	1	3.48728043646271235190	0.00000000000000000000	3.48728043646271235190
	132	1	5.23092065469406897193	1.74364021823135617595	5.23092065469406897193
	133	1	3.48728043646271235190	0.00000000000000000000	6.97456087292542470379
	134	1	5.23092065469406897193	1.74364021823135617595	8.71820109115678043565
	135	1	3.48728043646271235190	0.00000000000000000000	10.46184130938813794387
	136	1	5.23092065469406897193	1.74364021823135617595	12.20548152761949367573
	137	1	3.48728043646271235190	0.00000000000000000000	13.94912174585084940759
	138	1	5.23092065469406897193	1.74364021823135617595	15.69276196408220513945
	139	1	3.48728043646271235190	0.00000000000000000000	17.43640218231356087131
	140	1	5.23092065469406897193	1.74364021823135617595	19.18004240054491660317
	141	1	3.48728043646271235190	0.00000000000000000000	20.92368261877627588774
	142	1	5.23092065469406897193	1.74364021823135617595	22.66732283700763161960
	143	1	3.48728043646271235190	0.00000000000000000000	24.41096305523898735146
	144	1	5.23092065469406897193	1.74364021823135617595	26.15460327347034308332
	145	1	3.48728043646271235190	3.48728043646271235190	0.00000000000000000000
	146	1	5.23092065469406897193	5.23092065469406897193	1.74364021823135617595
	147	1	3.48728043646271235190	3.48728043646271235190	3.48728043646271235190
	148	1	5.23092065469406897193	5.23092065469406897193	5.23092065469406897193
	149	1	3.48728043646271235190	3.48728043646271235190	6.97456087292542470379
	150	1	5.23092065469406897193	5.23092065469406897193	8.71820109115678043565
	151	1	3.48728043646271235190	3.48728043646271235190	10.46184130938813794387
	152	1	5.23092065469406897193	5.23092065469406897193	12.20548152761949367573
	153	1	3.48728043646271235190	3.48728043646271235190	13.94912174585084940759
	154	1	5.23092065469406897193	5.23092065469406897193	15.69276196408220513945
	155	1	3.48728043646271235190	3.48728043646271235190	17.43640218231356087131
	156	1	5.23092065469406897193	5.23092065469406897193	19.18004240054491660317
	157	1	3.48728043646271235190	3.48728043646271235190	20.92368261877627588774
	158	1	5.23092065469406897193	5.23092065469406897193	22.66732283700763161960
	159	1	3.48728043646271235190	3.48728043646271235190	24.41096305523898735146
	160	1	5.23092065469406897193	5.23092065469406897193	26.15460327347034308332
	161	1	3.48728043646271235190	6.97456087292542470379	0.00000000000000000000
	162	1	5.23092065469406897193	8.71820109115678043565	1.74364021823135617595
	163	1	3.48728043646271235190	6.97456087292542470379	3.48728043646271235190
	164	1	5.23092065469406897193	8.71820109115678043565	5.23092065469406897193
	165	1	3.48728043646271235190	6.97456087292542470379	6.97456087292542470379
	166	1	5.23092065469406897193	8.71820109115678043565	8.71820109115678043565
	167	1	3.48728043646271235190	6.97456087292542470379	10.46184130938813794387
	168	1	5.23092065469406897193	8.71820109115678043565	12.20548152761949367573
	169	1	3.48728043646271235190	6.97456087292542470379	13.94912174585084940759
	170	1	5.23092065469406897193	8.71820109115678043565	15.69276196408220513945
	171	1	3.48728043646271235190	6.97456087292542470379	17.43640218231356087131
	172	1	5.23092065469406897193	8.71820109115678043565	19.18004240054491660317
	173	1	3.48728043646271235190	6.97456087292542470379	20.92368261877627588774
	174	1	5.23092065469406897193	8.71820109115678043565	22.66732283700763161960
	175	1	3.48728043646271235190	6.97456087292542470379	24.41096305523898735146
	176	1	5.23092065469406897193	8.71820109115678043565	26.15460327347034308332
	177	1	3.48728043646271235190	10.46184130938813794387	0.00000000000000000000
	178	1	5.23092065469406897193	12.20548152761949367573	1.74364021823135617595
	179	1	3.48728043646271235190	10.46184130938813794387	3.48728043646271235190
	180	1	5.23092065469406897193	12.20548152761949367573	5.23092065469406897193
	181	1	3.48728043646271235190	10.46184130938813794387	6.97456087292542470379
	182	1	5.23092065469406897193	12.20548152761949367573	8.71820109115678043565
	183	1	3.48728043646271235190	10.46184130938813794387	10.46184130938813794387
	184	1	5.23092065469406897193	12.20548152761949367573	12.20548152761949367573
	185	1	3.48728043646271235190	10.46184130938813794387	13.94912174585084940759
	186	1	5.23092065469406897193	12.20548152761949367573	15.69276196408220513945
	187	1	3.48728043646271235190	10.46184130938813794387	17.43640218231356087131
	188	1	5.23092065469406897193	12.20548152761949367573	19.18004240054491660317
	189	1	3.48728043646271235190	10.46184130938813794387	20.92368261877627588774
	190	1	5.23092065469406897193	12.20548152761949367573	22.66732283700763161960
	191	1	3.48728043646271235190	10.46184130938813794387	24.41096305523898735146
	192	1	5.23092065469406897193	12.20548152761949367573	26.15460327347034308332
	193	1	3.48728043646271235190	13.94912174585084940759	0.00000000000000000000
	194	1	5.23092065469406897193	15.69276196408220513945	1.74364021823135617595
	195	1	3.48728043646271235190	13.94912174585084940759	3.48728043646271235190
	196	1	5.23092065469406897193	15.69276196408220513945	5.23092065469406897193
	197	1	3.48728043646271235190	13.94912174585084940759	6.97456087292542470379
	198	1	5.23092065469406897193	15.69276196408220513945	8.71820109115678043565
	199	1	3.48728043646271235190	13.94912174585084940759	10.46184130938813794387
	200	1	5.23092065469406897193	15.69276196408220513945	12.20548152761949367573
	201	1	3.48728043646271235190	13.94912174585084940759	13.94912174585084940759
	202	1	5.23092065469406897193	15.69276196408220513945	15.69276196408220513945
	203	1	3.48728043646271235190	13.94912174585084940759	17.43640218231356087131
	204	1	5.23092065469406897193	15.69276196408220513945	19.18004240054491660317
	205	1	3.48728043646271235190	13.94912174585084940759	20.92368261877627588774
	206	1	5.23092065469406897193	15.69276196408220513945	22.66732283700763161960
	207	1	3.48728043646271235190	13.94912174585084940759	24.41096305523898735146
	208	1	5.23092065469406897193	15.69276196408220513945	26.15460327347034308332
	209	1	3.48728043646271235190	17.43640218231356087131	0.00000000000000000000
	210	1	5.23092065469406897193	19.18004240054491660317	1.74364021823135617595
	211	1	3.48728043646271235190	17.43640218231356087131	3.48728043646271235190
	212	1	5.23092065469406897193	19.18004240054491660317	5.23092065469406897193
	213	1	3.48728043646271235190	17.43640218231356087131	6.97456087292542470379
	214	1	5.23092065469406897193	19.18004240054491660317	8.71820109115678043565
	215	1	3.48728043646271235190	17.43640218231356087131	10.46184130938813794387
	216	1	5.23092065469406897193	19.18004240054491660317	12.20548152761949367573
	217	1	3.48728043646271235190	17.43640218231356087131	13.94912174585084940759
	218	1	5.23092065469406897193	19.18004240054491660317	15.69276196408220513945
	219	1	3.48728043646271235190	17.43640218231356087131	17.43640218231356087131
	220	1	5.23092065469406897193	19.18004240054491660317	19.18004240054491660317
	221	1	3.48728043646271235190	17.43640218231356087131	20.92368261877627588774
	222	1	5.23092065469406897193	19.18004240054491660317	22.66732283700763161960
	223	1	3.48728043646271235190	17.43640218231356087131	24.41096305523898735146
	224	1	5.23092065469406897193	19.18004240054491660317	26.15460327347034308332
	225	1	3.48728043646271235190	20.92368261877627588774	0.00000000000000000000
	226	1	5.23092065469406897193	22.66732283700763161960	1.74364021823135617595
	227	1	3.48728043646271235190	20.92368261877627588774	3.48728043646271235190
	228	1	5.23092065469406897193	22.66732283700763161960	5.23092065469406897193
	229	1	3.48728043646271235190	20.92368261877627588774	6.97456087292542470379
	230	1	5.23092065469406897193	22.66732283700763161960	8.71820109115678043565
	231	1	3.48728043646271235190	20.92368261877627588774	10.46184130938813794387
	232	1	5.23092065469406897193	22.66732283700763161960	12.20548152761949367573
	233	1	3.48728043646271235190	20.92368261877627588774	13.94912174585084940759
	234	1	5.23092065469406897193	22.66732283700763161960	15.69276196408220513945
	235	1	3.48728043646271235190	20.92368261877627588774	17.43640218231356087131
	236	1	5.23092065469406897193	22.66732283700763161960	19.18004240054491660317
	237	1	3.48728043646271235190	20.92368261877627588774	20.92368261877627588774
	238	1	5.23092065469406897193	22.66732283700763161960	22.66732283700763161960
	239	1	3.48728043646271235190	20.92368261877627588774	24.41096305523898735146
	240	1	5.23092065469406897193	22.66732283700763161960	26.15460327347034308332
	241	1	3.48728043646271235190	24.41096305523898735146	0.00000000000000000000
	242	1	5.23092065469406897193	26.15460327347034308332	1.74364021823135617595
	243	1	3.48728043646271235190	24.41096305523898735146	3.48728043646271235190
	244	1	5.23092065469406897193	26.15460327347034308332	5.23092065469406897193
	245	1	3.48728043646271235190	24.41096305523898735146	6.97456087292542470379
	246	1	5.23092065469406897193	26.15460327347034308332	8.71820109115678043565
	247	1	3.48728043646271235190	24.41096305523898735146	10.46184130938813794387
	248	1	5.23092065469406897193	26.15460327347034308332	12.20548152761949367573
	249	1	3.48728043646271235190	24.41096305523898735146	13.94912174585084940759
	250	1	5.23092065469406897193	26.15460327347034308332	15.69276196408220513945
	251	1	3.48728043646271235190	24.41096305523898735146	17.43640218231356087131
	252	1	5.23092065469406897193	26.15460327347034308332	19.18004240054491660317
	253	1	3.48728043646271235190	24.41096305523898735146	20.92368261877627588774
	254	1	5.23092065469406897193	26.15460327347034308332	22.66732283700763161960
	255	1	3.48728043646271235190	24.41096305523898735146	24.41096305523898735146
	256	1	5.23092065469406897193	26.15460327347034308332	26.15460327347034308332
	257	1	6.97456087292542470379	0.00000000000000000000	0.00000000000000000000
	258	1	8.71820109115678043565	1.74364021823135617595	1.74364021823135617595
	259	1	6.97456087292542470379	0.00000000000000000000	3.48728043646271235190
	260	1	8.71820109115678043565	1.74364021823135617595	5.23092065469406897193
	261	1	6.97456087292542470379	0.00000000000000000000	6.97456087292542470379
	262	1	8.71820109115678043565	1.74364021823135617595	8.71820109115678043565
	263	1	6.97456087292542470379	0.00000000000000000000	10.46184130938813794387
	264	1	8.71820109115678043565	1.74364021823135617595	12.20548152761949367573
	265	1	6.97456087292542470379	0.00000000000000000000	13.94912174585084940759
	266	1	8.71820109115678043565	1.74364021823135617595	15.69276196408220513945
	267	1	6.97456087292542470379	0.00000000000000000000	17.43640218231356087131
	268	1	8.71820109115678043565	1.74364021823135617595	19.18004240054491660317
	269	1	6.97456087292542470379	0.00000000000000000000	20.92368261877627588774
	270	1	8.71820109115678043565	1.74364021823135617595	22.66732283700763161960
	271	1	6.97456087292542470379	0.00000000000000000000	24.41096305523898735146
	272	1	8.71820109115678043565	1.74364021823135617595	26.15460327347034308332
	273	1	6.97456087292542470379	3.48728043646271235190	0.00000000000000000000
	274	1	8.71820109115678043565	5.23092065469406897193	1.74364021823135617595
	275	1	6.97456087292542470379	3.48728043646271235190	3.48728043646271235190
	276	1	8.71820109115678043565	5.23092065469406897193	5.23092065469406897193
	277	1	6.97456087292542470379	3.48728043646271235190	6.97456087292542470379
	278	1	8.71820109115678043565	5.23092065469406897193	8.71820109115678043565
	279	1	6.97456087292542470379	3.48728043646271235190	10.46184130938813794387
	280	1	8.71820109115678043565	5.23092065469406897193	12.20548152761949367573
	281	1	6.97456087292542470379	3.48728043646271235190	13.94912174585084940759
	282	1	8.71820109115678043565	5.23092065469406897193	15.69276196408220513945
	283	1	6.97456087292542470379	3.48728043646271235190	17.43640218231356087131
	284	1	8.71820109115678043565	5.23092065469406897193	19.18004240054491660317
	285	1	6.97456087292542470379	3.48728043646271235190	20.92368261877627588774
	286	1	8.71820109115678043565	5.23092065469406897193	22.66732283700763161960
	287	1	6.97456087292542470379	3.48728043646271235190	24.41096305523898735146
	288	1	8.71820109115678043565	5.23092065469406897193	26.15460327347034308332
	289	1	6.97456087292542470379	6.97456087292542470379	0.00000000000000000000
	290	1	8.71820109115678043565	8.71820109115678043565	1.74364021823135617595
	291	1	6.97456087292542470379	6.97456087292542470379	3.48728043646271235190
	292	1	8.71820109115678043565	8.71820109115678043565	5.23092065469406897193
	293	1	6.97456087292542470379	6.97456087292542470379	6.97456087292542470379
	294	1	8.71820109115678043565	8.71820109115678043565	8.71820109115678043565
	295	1	6.97456087292542470379	6.97456087292542470379	10.46184130938813794387
	296	1	8.71820109115678043565	8.71820109115678043565	12.20548152761949367573
	297	1	6.97456087292542470379	6.97456087292542470379	13.94912174585084940759
	298	1	8.71820109115678043565	8.71820109115678043565	15.69276196408220513945
	299	1	6.97456087292542470379	6.97456087292542470379	17.43640218231356087131
	300	1	8.71820109115678043565	8.71820109115678043565	19.18004240054491660317
	301	1	6.97456087292542470379	6.97456087292542470379	20.92368261877627588774
	302	1	8.71820109115678043565	8.71820109115678043565	22.66732283700763161960
	303	1	6.97456087292542470379	6.97456087292542470379	24.41096305523898735146
	304	1	8.71820109115678043565	8.71820109115678043565	26.15460327347034308332
	305	1	6.97456087292542470379	10.46184130938813794387	0.00000000000000000000
	306	1	8.71820109115678043565	12.20548152761949367573	1.74364021823135617595
	307	1	6.97456087292542470379	10.46184130938813794387	3.48728043646271235190
	308	1	8.71820109115678043565	12.20548152761949367573	5.23092065469406897193
	309	1	6.97456087292542470379	10.46184130938813794387	6.97456087292542470379
	310	1	8.71820109115678043565	12.20548152761949367573	8.71820109115678043565
	311	1	6.97456087292542470379	10.46184130938813794387	10.46184130938813794387
	312	1	8.71820109115678043565	12.20548152761949367573	12.20548152761949367573
	313	1	6.97456087292542470379	10.46184130938813794387	13.94912174585084940759
	314	1	8.71820109115678043565	12.20548152761949367573	15.69276196408220513945
	315	1	6.97456087292542470379	10.46184130938813794387	17.43640218231356087131
	316	1	8.71820109115678043565	12.20548152761949367573	19.18004240054491660317
	317	1	6.97456087292542470379	10.46184130938813794387	20.92368261877627588774
	318	1	8.71820109115678043565	12.20548152761949367573	22.66732283700763161960
	319	1	6.97456087292542470379	10.46184130938813794387	24.41096305523898735146
	320	1	8.71820109115678043565	12.20548152761949367573	26.15460327347034308332
	321	1	6.97456087292542470379	13.94912174585084940759	0.00000000000000000000
	322	1	8.71820109115678043565	15.69276196408220513945	1.74364021823135617595
	323	1	6.97456087292542470379	13.94912174585084940759	3.48728043646271235190
	324	1	8.71820109115678043565	15.69276196408220513945	5.23092065469406897193
	325	1	6.97456087292542470379	13.94912174585084940759	6.97456087292542470379
	326	1	8.71820109115678043565	15.69276196408220513945	8.71820109115678043565
	327	1	6.97456087292542470379	13.94912174585084940759	10.46184130938813794387
	328	1	8.71820109115678043565	15.69276196408220513945	12.20548152761949367573
	329	1	6.97456087292542470379	13.94912174585084940759	13.94912174585084940759
	330	1	8.71820109115678043565	15.69276196408220513945	15.69276196408220513945
	331	1	6.97456087292542470379	13.94912174585084940759	17.43640218231356087131
	332	1	8.71820109115678043565	15.69276196408220513945	19.18004240054491660317
	333	1	6.97456087292542470379	13.94912174585084940759	20.92368261877627588774
	334	1	8.71820109115678043565	15.69276196408220513945	22.66732283700763161960
	335	1	6.97456087292542470379	13.94912174585084940759	24.41096305523898735146
	336	1	8.71820109115678043565	15.69276196408220513945	26.15460327347034308332
	337	1	6.97456087292542470379	17.43640218231356087131	0.00000000000000000000
	338	1	8.71820109115678043565	19.18004240054491660317	1.74364021823135617595
	339	1	6.97456087292542470379	17.43640218231356087131	3.48728043646271235190
	340	1	8.71820109115678043565	19.18004240054491660317	5.23092065469406897193
	341	1	6.97456087292542470379	17.43640218231356087131	6.97456087292542470379
	342	1	8.71820109115678043565	19.18004240054491660317	8.71820109115678043565
	343	1	6.97456087292542470379	17.43640218231356087131	10.46184130938813794387
	344	1	8.71820109115678043565	19.18004240054491660317	12.20548152761949367573
	345	1	6.97456087292542470379	17.43640218231356087131	13.94912174585084940759
	346	1	8.71820109115678043565	19.18004240054491660317	15.69276196408220513945
	347	1	6.97456087292542470379	17.43640218231356087131	17.43640218231356087131
	348	1	8.71820109115678043565	19.18004240054491660317	19.18004240054491660317
	349	1	6.97456087292542470379	17.43640218231356087131	20.92368261877627588774
	350	1	8.71820109115678043565	19.18004240054491660317	22.66732283700763161960
	351	1	6.97456087292542470379	17.43640218231356087131	24.41096305523898735146
	352	1	8.71820109115678043565	19.18004240054491660317	26.15460327347034308332
	353	1	6.97456087292542470379	20.92368261877627588774	0.00000000000000000000
	354	1	8.71820109115678043565	22.66732283700763161960	1.74364021823135617595
	355	1	6.97456087292542470379	20.92368261877627588774	3.48728043646271235190
	356	1	8.71820109115678043565	22.66732283700763161960	5.23092065469406897193
	357	1	6.97456087292542470379	20.92368261877627588774	6.97456087292542470379
	358	1	8.71820109115678043565	22.66732283700763161960	8.71820109115678043565
	359	1	6.97456087292542470379	20.92368261877627588774	10.46184130938813794387
	360	1	8.71820109115678043565	22.66732283700763161960	12.20548152761949367573
	361	1	6.97456087292542470379	20.92368261877627588774	13.94912174585084940759
	362	1	8.71820109115678043565	22.66732283700763161960	15.69276196408220513945
	363	1	6.97456087292542470379	20.92368261877627588774	17.43640218231356087131
	364	1	8.71820109115678043565	22.66732283700763161960	19.18004240054491660317
	365	1	6.97456087292542470379	20.92368261877627588774	20.92368261877627588774
	366	1	8.71820109115678043565	22.66732283700763161960	22.66732283700763161960
	367	1	6.97456087292542470379	20.92368261877627588774	24.41096305523898735146
	368	1	8.71820109115678043565	22.66732283700763161960	26.15460327347034308332
	369	1	6.97456087292542470379	24.41096305523898735146	0.00000000000000000000
	370	1	8.71820109115678043565	26.15460327347034308332	1.74364021823135617595
	371	1	6.97456087292542470379	24.41096305523898735146	3.48728043646271235190
	372	1	8.71820109115678043565	26.15460327347034308332	5.23092065469406897193
	373	1	6.97456087292542470379	24.41096305523898735146	6.97456087292542470379
	374	1	8.71820109115678043565	26.15460327347034308332	8.71820109115678043565
	375	1	6.97456087292542470379	24.41096305523898735146	10.46184130938813794387
	376	1	8.71820109115678043565	26.15460327347034308332	12.20548152761949367573
	377	1	6.97456087292542470379	24.41096305523898735146	13.94912174585084940759
	378	1	8.71820109115678043565	26.15460327347034308332	15.69276196408220513945
	379	1	6.97456087292542470379	24.41096305523898735146	17.43640218231356087131
	380	1	8.71820109115678043565	26.15460327347034308332	19.18004240054491660317
	381	1	6.97456087292542470379	24.41096305523898735146	20.92368261877627588774
	382	1	8.71820109115678043565	26.15460327347034308332	22.66732283700763161960
	383	1	6.97456087292542470379	24.41096305523898735146	24.41096305523898735146
	384	1	8.71820109115678043565	26.15460327347034308332	26.15460327347034308332
	385	1	10.46184130938813794387	0.00000000000000000000	0.00000000000000000000
	386	1	12.20548152761949367573	1.74364021823135617595	1.74364021823135617595