ITEM: TIMESTEP
0
ITEM: NUMBER OF ATOMS
1023
ITEM: BOX BOUNDS xy xz yz pp pp pp
0 27.8982 0
0 27.8982 0
0 27.8982 0
ITEM: ATOMS id type x y z 
1 1 0 0 0 
2 1 26.1546 26.1546 26.1546 
3 1 0 0 3.48728 
4 1 1.74364 1.74364 5.23092 
5 1 0 0 6.97456 
6 1 1.74364 1.74364 8.7182 
7 1 0 0 10.4618 
8 1 1.74364 1.74364 12.2055 
9 1 0 0 13.9491 
10 1 1.74364 1.74364 15.6928 
11 1 0 0 17.4364 
12 1 1.74364 1.74364 19.18 
13 1 0 0 20.9237 
14 1 1.74364 1.74364 22.6673 
15 1 0 0 24.411 
16 1 1.74364 1.74364 26.1546 
17 1 0 3.48728 0 
18 1 1.74364 5.23092 1.74364 
19 1 0 3.48728 3.48728 
20 1 1.74364 5.23092 5.23092 
21 1 0 3.48728 6.97456 
22 1 1.74364 5.23092 8.7182 
23 1 0 3.48728 10.4618 
24 1 1.74364 5.23092 12.2055 
25 1 0 3.48728 13.9491 
26 1 1.74364 5.23092 15.6928 
27 1 0 3.48728 17.4364 
28 1 1.74364 5.23092 19.18 
29 1 0 3.48728 20.9237 
30 1 1.74364 5.23092 22.6673 
31 1 0 3.48728 24.411 
32 1 1.74364 5.23092 26.1546 
33 1 0 6.97456 0 
34 1 1.74364 8.7182 1.74364 
35 1 0 6.97456 3.48728 
36 1 1.74364 8.7182 5.23092 
37 1 0 6.97456 6.97456 
38 1 1.74364 8.7182 8.7182 
39 1 0 6.97456 10.4618 
40 1 1.74364 8.7182 12.2055 
41 1 0 6.97456 13.9491 
42 1 1.74364 8.7182 15.6928 
43 1 0 6.97456 17.4364 
44 1 1.74364 8.7182 19.18 
45 1 0 6.97456 20.9237 
46 1 1.74364 8.7182 22.6673 
47 1 0 6.97456 24.411 
48 1 1.74364 8.7182 26.1546 
49 1 0 10.4618 0 
50 1 1.74364 12.2055 1.74364 
51 1 0 10.4618 3.48728 
52 1 1.74364 12.2055 5.23092 
53 1 0 10.4618 6.97456 
54 1 1.74364 12.2055 8.7182 
55 1 0 10.4618 10.4618 
56 1 1.74364 12.2055 12.2055 
57 1 0 10.4618 13.9491 
58 1 1.74364 12.2055 15.6928 
59 1 0 10.4618 17.4364 
60 1 1.74364 12.2055 19.18 
61 1 0 10.4618 20.9237 
62 1 1.74364 12.2055 22.6673 
63 1 0 10.4618 24.411 
64 1 1.74364 12.2055 26.1546 
65 1 0 13.9491 0 
66 1 1.74364 15.6928 1.74364 
67 1 0 13.9491 3.48728 
68 1 1.74364 15.6928 5.23092 
69 1 0 13.9491 6.97456 
70 1 1.74364 15.6928 8.7182 
71 1 0 13.9491 10.4618 
72 1 1.74364 15.6928 12.2055 
73 1 0 13.9491 13.9491 
74 1 1.74364 15.6928 15.6928 
75 1 0 13.9491 17.4364 
76 1 1.74364 15.6928 19.18 
77 1 0 13.9491 20.9237 
78 1 1.74364 15.6928 22.6673 
79 1 0 13.9491 24.411 
80 1 1.74364 15.6928 26.1546 
81 1 0 17.4364 0 
82 1 1.74364 19.18 1.74364 
83 1 0 17.4364 3.48728 
84 1 1.74364 19.18 5.23092 
85 1 0 17.4364 6.97456 
86 1 1.74364 19.18 8.7182 
87 1 0 17.4364 10.4618 
88 1 1.74364 19.18 12.2055 
89 1 0 17.4364 13.9491 
90 1 1.74364 19.18 15.6928 
91 1 0 17.4364 17.4364 
92 1 1.74364 19.18 19.18 
93 1 0 17.4364 20.9237 
94 1 1.74364 19.18 22.6673 
95 1 0 17.4364 24.411 
96 1 1.74364 19.18 26.1546 
97 1 0 20.9237 0 
98 1 1.74364 22.6673 1.74364 
99 1 0 20.9237 3.48728 
100 1 1.74364 22.6673 5.23092 
101 1 0 20.9237 6.97456 
102 1 1.74364 22.6673 8.7182 
103 1 0 20.9237 10.4618 
104 1 1.74364 22.6673 12.2055 
105 1 0 20.9237 13.9491 
106 1 1.74364 22.6673 15.6928 
107 1 0 20.9237 17.4364 
108 1 1.74364 22.6673 19.18 
109 1 0 20.9237 20.9237 
110 1 1.74364 22.6673 22.6673 
111 1 0 20.9237 24.411 
112 1 1.74364 22.6673 26.1546 
113 1 0 24.411 0 
114 1 1.74364 26.1546 1.74364 
115 1 0 24.411 3.48728 
116 1 1.74364 26.1546 5.23092 
117 1 0 24.411 6.97456 
118 1 1.74364 26.1546 8.7182 
119 1 0 24.411 10.4618 
120 1 1.74364 26.1546 12.2055 
121 1 0 24.411 13.9491 
122 1 1.74364 26.1546 15.6928 
123 1 0 24.411 17.4364 
124 1 1.74364 26.1546 19.18 
125 1 0 24.411 20.9237 
126 1 1.74364 26.1546 22.6673 
127 1 0 24.411 24.411 
128 1 1.74364 26.1546 26.1546 
129 1 3.48728 0 0 
130 1 5.23092 1.74364 1.74364 
131 1 3.48728 0 3.48728 
132 1 5.23092 1.74364 5.23092 
133 1 3.48728 0 6.97456 
134 1 5.23092 1.74364 8.7182 
135 1 3.48728 0 10.4618 
136 1 5.23092 1.74364 12.2055 
137 1 3.48728 0 13.9491 
138 1 5.23092 1.74364 15.6928 
139 1 3.48728 0 17.4364 
140 1 5.23092 1.74364 19.18 
141 1 3.48728 0 20.9237 
142 1 5.23092 1.74364 22.6673 
143 1 3.48728 0 24.411 
144 1 5.23092 1.74364 26.1546 
145 1 3.48728 3.48728 0 
146 1 5.23092 5.23092 1.74364 
147 1 3.48728 3.48728 3.48728 
148 1 5.23092 5.23092 5.23092 
149 1 3.48728 3.48728 6.97456 
150 1 5.23092 5.23092 8.7182 
151 1 3.48728 3.48728 10.4618 
152 1 5.23092 5.23092 12.2055 
153 1 3.48728 3.48728 13.9491 
154 1 5.23092 5.23092 15.6928 
155 1 3.48728 3.48728 17.4364 
156 1 5.23092 5.23092 19.18 
157 1 3.48728 3.48728 20.9237 
158 1 5.23092 5.23092 22.6673 
159 1 3.48728 3.48728 24.411 
160 1 5.23092 5.23092 26.1546 
161 1 3.48728 6.97456 0 
162 1 5.23092 8.7182 1.74364 
163 1 3.48728 6.97456 3.48728 
164 1 5.23092 8.7182 5.23092 
165 1 3.48728 6.97456 6.97456 
166 1 5.23092 8.7182 8.7182 
167 1 3.48728 6.97456 10.4618 
168 1 5.23092 8.7182 12.2055 
169 1 3.48728 6.97456 13.9491 
170 1 5.23092 8.7182 15.6928 
171 1 3.48728 6.97456 17.4364 
172 1 5.23092 8.7182 19.18 
173 1 3.48728 6.97456 20.9237 
174 1 5.23092 8.7182 22.6673 
175 1 3.48728 6.97456 24.411 
176 1 5.23092 8.7182 26.1546 
177 1 3.48728 10.4618 0 
178 1 5.23092 12.2055 1.74364 
179 1 3.48728 10.4618 3.48728 
180 1 5.23092 12.2055 5.23092 
181 1 3.48728 10.4618 6.97456 
182 1 5.23092 12.2055 8.7182 
183 1 3.48728 10.4618 10.4618 
184 1 5.23092 12.2055 12.2055 
185 1 3.48728 10.4618 13.9491 
186 1 5.23092 12.2055 15.6928 
187 1 3.48728 10.4618 17.4364 
188 1 5.23092 12.2055 19.18 
189 1 3.48728 10.4618 20.9237 
190 1 5.23092 12.2055 22.6673 
191 1 3.48728 10.4618 24.411 
192 1 5.23092 12.2055 26.1546 
193 1 3.48728 13.9491 0 
194 1 5.23092 15.6928 1.74364 
195 1 3.48728 13.9491 3.48728 
196 1 5.23092 15.6928 5.23092 
197 1 3.48728 13.9491 6.97456 
198 1 5.23092 15.6928 8.7182 
199 1 3.48728 13.9491 10.4618 
200 1 5.23092 15.6928 12.2055 
201 1 3.48728 13.9491 13.9491 
202 1 5.23092 15.6928 15.6928 
203 1 3.48728 13.9491 17.4364 
204 1 5.23092 15.6928 19.18 
205 1 3.48728 13.9491 20.9237 
206 1 5.23092 15.6928 22.6673 
207 1 3.48728 13.9491 24.411 
208 1 5.23092 15.6928 26.1546 
209 1 3.48728 17.4364 0 
210 1 5.23092 19.18 1.74364 
211 1 3.48728 17.4364 3.48728 
212 1 5.23092 19.18 5.23092 
213 1 3.48728 17.4364 6.97456 
214 1 5.23092 19.18 8.7182 
215 1 3.48728 17.4364 10.4618 
216 1 5.23092 19.18 12.2055 
217 1 3.48728 17.4364 13.9491 
218 1 5.23092 19.18 15.6928 
219 1 3.48728 17.4364 17.4364 
220 1 5.23092 19.18 19.18 
221 1 3.48728 17.4364 20.9237 
222 1 5.23092 19.18 22.6673 
223 1 3.48728 17.4364 24.411 
224 1 5.23092 19.18 26.1546 
225 1 3.48728 20.9237 0 
226 1 5.23092 22.6673 1.74364 
227 1 3.48728 20.9237 3.48728 
228 1 5.23092 22.6673 5.23092 
229 1 3.48728 20.9237 6.97456 
230 1 5.23092 22.6673 8.7182 
231 1 3.48728 20.9237 10.4618 
232 1 5.23092 22.6673 12.2055 
233 1 3.48728 20.9237 13.9491 
234 1 5.23092 22.6673 15.6928 
235 1 3.48728 20.9237 17.4364 
236 1 5.23092 22.6673 19.18 
237 1 3.48728 20.9237 20.9237 
238 1 5.23092 22.6673 22.6673 
239 1 3.48728 20.9237 24.411 
240 1 5.23092 22.6673 26.1546 
241 1 3.48728 24.411 0 
242 1 5.23092 26.1546 1.74364 
243 1 3.48728 24.411 3.48728 
244 1 5.23092 26.1546 5.23092 
245 1 3.48728 24.411 6.97456 
246 1 5.23092 26.1546 8.7182 
247 1 3.48728 24.411 10.4618 
248 1 5.23092 26.1546 12.2055 
249 1 3.48728 24.411 13.9491 
250 1 5.23092 26.1546 15.6928 
251 1 3.48728 24.411 17.4364 
252 1 5.23092 26.1546 19.18 
253 1 3.48728 24.411 20.9237 
254 1 5.23092 26.1546 22.6673 
255 1 3.48728 24.411 24.411 
256 1 5.23092 26.1546 26.1546 
257 1 6.97456 0 0 
258 1 8.7182 1.74364 1.74364 
259 1 6.97456 0 3.48728 
260 1 8.7182 1.74364 5.23092 
261 1 6.97456 0 6.97456 
262 1 8.7182 1.74364 8.7182 
263 1 6.97456 0 10.4618 
264 1 8.7182 1.74364 12.2055 
265 1 6.97456 0 13.9491 
266 1 8.7182 1.74364 15.6928 
267 1 6.97456 0 17.4364 
268 1 8.7182 1.74364 19.18 
269 1 6.97456 0 20.9237 
270 1 8.7182 1.74364 22.6673 
271 1 6.97456 0 24.411 
272 1 8.7182 1.74364 26.1546 
273 1 6.97456 3.48728 0 
274 1 8.7182 5.23092 1.74364 
275 1 6.97456 3.48728 3.48728 
276 1 8.7182 5.23092 5.23092 
277 1 6.97456 3.48728 6.97456 
278 1 8.7182 5.23092 8.7182 
279 1 6.97456 3.48728 10.4618 
280 1 8.7182 5.23092 12.2055 
281 1 6.97456 3.48728 13.9491 
282 1 8.7182 5.23092 15.6928 
283 1 6.97456 3.48728 17.4364 
284 1 8.7182 5.23092 19.18 
285 1 6.97456 3.48728 20.9237 
286 1 8.7182 5.23092 22.6673 
287 1 6.97456 3.48728 24.411 
288 1 8.7182 5.23092 26.1546 
289 1 6.97456 6.97456 0 
290 1 8.7182 8.7182 1.74364 
291 1 6.97456 6.97456 3.48728 
292 1 8.7182 8.7182 5.23092 
293 1 6.97456 6.97456 6.97456 
294 1 8.7182 8.7182 8.7182 
295 1 6.97456 6.97456 10.4618 
296 1 8.7182 8.7182 12.2055 
297 1 6.97456 6.97456 13.9491 
298 1 8.7182 8.7182 15.6928 
299 1 6.97456 6.97456 17.4364 
300 1 8.7182 8.7182 19.18 
301 1 6.97456 6.97456 20.9237 
302 1 8.7182 8.7182 22.6673 
303 1 6.97456 6.97456 24.411 
304 1 8.7182 8.7182 26.1546 
305 1 6.97456 10.4618 0 
306 1 8.7182 12.2055 1.74364 
307 1 6.97456 10.4618 3.48728 
308 1 8.7182 12.2055 5.23092 
309 1 6.97456 10.4618 6.97456 
310 1 8.7182 12.2055 8.7182 
311 1 6.97456 10.4618 10.4618 
312 1 8.7182 12.2055 12.2055 
313 1 6.97456 10.4618 13.9491 
314 1 8.7182 12.2055 15.6928 
315 1 6.97456 10.4618 17.4364 
316 1 8.7182 12.2055 19.18 
317 1 6.97456 10.4618 20.9237 
318 1 8.7182 12.2055 22.6673 
319 1 6.97456 10.4618 24.411 
320 1 8.7182 12.2055 26.1546 
321 1 6.97456 13.9491 0 
322 1 8.7182 15.6928 1.74364 
323 1 6.97456 13.9491 3.48728 
324 1 8.7182 15.6928 5.23092 
325 1 6.97456 13.9491 6.97456 
326 1 8.7182 15.6928 8.7182 
327 1 6.97456 13.9491 10.4618 
328 1 8.7182 15.6928 12.2055 
329 1 6.97456 13.9491 13.9491 
330 1 8.7182 15.6928 15.6928 
331 1 6.97456 13.9491 17.4364 
332 1 8.7182 15.6928 19.18 
333 1 6.97456 13.9491 20.9237 
334 1 8.7182 15.6928 22.6673 
335 1 6.97456 13.9491 24.411 
336 1 8.7182 15.6928 26.1546 
337 1 6.97456 17.4364 0 
338 1 8.7182 19.18 1.74364 
339 1 6.97456 17.4364 3.48728 
340 1 8.7182 19.18 5.23092 
341 1 6.97456 17.4364 6.97456 
342 1 8.7182 19.18 8.7182 
343 1 6.97456 17.4364 10.4618 
344 1 8.7182 19.18 12.2055 
345 1 6.97456 17.4364 13.9491 
346 1 8.7182 19.18 15.6928 
347 1 6.97456 17.4364 17.4364 
348 1 8.7182 19.18 19.18 
349 1 6.97456 17.4364 20.9237 
350 1 8.7182 19.18 22.6673 
351 1 6.97456 17.4364 24.411 
352 1 8.7182 19.18 26.1546 
353 1 6.97456 20.9237 0 
354 1 8.7182 22.6673 1.74364 
355 1 6.97456 20.9237 3.48728 
356 1 8.7182 22.6673 5.23092 
357 1 6.97456 20.9237 6.97456 
358 1 8.7182 22.6673 8.7182 
359 1 6.97456 20.9237 10.4618 
360 1 8.7182 22.6673 12.2055 
361 1 6.97456 20.9237 13.9491 
362 1 8.7182 22.6673 15.6928 
363 1 6.97456 20.9237 17.4364 
364 1 8.7182 22.6673 19.18 
365 1 6.97456 20.9237 20.9237 
366 1 8.7182 22.6673 22.6673 
367 1 6.97456 20.9237 24.411 
368 1 8.7182 22.6673 26.1546 
369 1 6.97456 24.411 0 
370 1 8.7182 26.1546 1.74364 
371 1 6.97456 24.411 3.48728 
372 1 8.7182 26.1546 5.23092 
373 1 6.97456 24.411 6.97456 
374 1 8.7182 26.1546 8.7182 
375 1 6.97456 24.411 10.4618 
376 1 8.7182 26.1546 12.2055 
377 1 6.97456 24.411 13.9491 
378 1 8.7182 26.1546 15.6928 
379 1 6.97456 24.411 17.4364 
380 1 8.7182 26.1546 19.18 
381 1 6.97456 24.411 20.9237 
382 1 8.7182 26.1546 22.6673 
383 1 6.97456 24.411 24.411 
384 1 8.7182 26.1546 26.1546 
385 1 10.4618 0 0 
386 1 12.2055 1.74364 1.74364 
387 1 10.4618 0 3.48728 
388 1 12.2055 1.74364 5.23092 
389 1 10.4618 0 6.97456 
390 1 12.2055 1.74364 8.7182 
391 1 10.4618 0 10.4618 
392 1 12.2055 1.74364 12.2055 
393 1 10.4618 0 13.9491 
394 1 12.2055 1.74364 15.6928 
395 1 10.4618 0 17.4364 
396 1 12.2055 1.74364 19.18 
397 1 10.4618 0 20.9237 
398 1 12.2055 1.74364 22.6673 
399 1 10.4618 0 24.411 
400 1 12.2055 1.74364 26.1546 
401 1 10.4618 3.48728 0 
402 1 12.2055 5.23092 1.74364 
403 1 10.4618 3.48728 3.48728 
404 1 12.2055 5.23092 5.23092 
405 1 10.4618 3.48728 6.97456 
406 1 12.2055 5.23092 8.7182 
407 1 10.4618 3.48728 10.4618 
408 1 12.2055 5.23092 12.2055 
409 1 10.4618 3.48728 13.9491 
410 1 12.2055 5.23092 15.6928 
411 1 10.4618 3.48728 17.4364 
412 1 12.2055 5.23092 19.18 
413 1 10.4618 3.48728 20.9237 
414 1 12.2055 5.23092 22.6673 
415 1 10.4618 3.48728 24.411 
416 1 12.2055 5.23092 26.1546 
417 1 10.4618 6.97456 0 
418 1 12.2055 8.7182 1.74364 
419 1 10.4618 6.97456 3.48728 
420 1 12.2055 8.7182 5.23092 
421 1 10.4618 6.97456 6.97456 
422 1 12.2055 8.7182 8.7182 
423 1 10.4618 6.97456 10.4618 
424 1 12.2055 8.7182 12.2055 
425 1 10.4618 6.97456 13.9491 
426 1 12.2055 8.7182 15.6928 
427 1 10.4618 6.97456 17.4364 
428 1 12.2055 8.7182 19.18 
429 1 10.4618 6.97456 20.9237 
430 1 12.2055 8.7182 22.6673 
431 1 10.4618 6.97456 24.411 
432 1 12.2055 8.7182 26.1546 
433 1 10.4618 10.4618 0 
434 1 12.2055 12.2055 1.74364 
435 1 10.4618 10.4618 3.48728 
436 1 12.2055 12.2055 5.23092 
437 1 10.4618 10.4618 6.97456 
438 1 12.2055 12.2055 8.7182 
439 1 10.4618 10.4618 10.4618 
440 1 12.2055 12.2055 12.2055 
441 1 10.4618 10.4618 13.9491 
442 1 12.2055 12.2055 15.6928 
443 1 10.4618 10.4618 17.4364 
444 1 12.2055 12.2055 19.18 
445 1 10.4618 10.4618 20.9237 
446 1 12.2055 12.2055 22.6673 
447 1 10.4618 10.4618 24.411 
448 1 12.2055 12.2055 26.1546 
449 1 10.4618 13.9491 0 
450 1 12.2055 15.6928 1.74364 
451 1 10.4618 13.9491 3.48728 
452 1 12.2055 15.6928 5.23092 
453 1 10.4618 13.9491 6.97456 
454 1 12.2055 15.6928 8.7182 
455 1 10.4618 13.9491 10.4618 
456 1 12.2055 15.6928 12.2055 
457 1 10.4618 13.9491 13.9491 
458 1 12.2055 15.6928 15.6928 
459 1 10.4618 13.9491 17.4364 
460 1 12.2055 15.6928 19.18 
461 1 10.4618 13.9491 20.9237 
462 1 12.2055 15.6928 22.6673 
463 1 10.4618 13.9491 24.411 
464 1 12.2055 15.6928 26.1546 
465 1 10.4618 17.4364 0 
466 1 12.2055 19.18 1.74364 
467 1 10.4618 17.4364 3.48728 
468 1 12.2055 19.18 5.23092 
469 1 10.4618 17.4364 6.97456 
470 1 12.2055 19.18 8.7182 
471 1 10.4618 17.4364 10.4618 
472 1 12.2055 19.18 12.2055 
473 1 10.4618 17.4364 13.9491 
474 1 12.2055 19.18 15.6928 
475 1 10.4618 17.4364 17.4364 
476 1 12.2055 19.18 19.18 
477 1 10.4618 17.4364 20.9237 
478 1 12.2055 19.18 22.6673 
479 1 10.4618 17.4364 24.411 
480 1 12.2055 19.18 26.1546 
481 1 10.4618 20.9237 0 
482 1 12.2055 22.6673 1.74364 
483 1 10.4618 20.9237 3.48728 
484 1 12.2055 22.6673 5.23092 
485 1 10.4618 20.9237 6.97456 
486 1 12.2055 22.6673 8.7182 
487 1 10.4618 20.9237 10.4618 
488 1 12.2055 22.6673 12.2055 
489 1 10.4618 20.9237 13.9491 
490 1 12.2055 22.6673 15.6928 
491 1 10.4618 20.9237 17.4364 
492 1 12.2055 22.6673 19.18 
493 1 10.4618 20.9237 20.9237 
494 1 12.2055 22.6673 22.6673 
495 1 10.4618 20.9237 24.411 
496 1 12.2055 22.6673 26.1546 
497 1 10.4618 24.411 0 
498 1 12.2055 26.1546 1.74364 
499 1 10.4618 24.411 3.48728 
500 1 12.2055 26.1546 5.23092 
501 1 10.4618 24.411 6.97456 
502 1 12.2055 26.1546 8.7182 
503 1 10.4618 24.411 10.4618 
504 1 12.2055 26.1546 12.2055 
505 1 10.4618 24.411 13.9491 
506 1 12.2055 26.1546 15.6928 
507 1 10.4618 24.411 17.4364 
508 1 12.2055 26.1546 19.18 
509 1 10.4618 24.411 20.9237 
510 1 12.2055 26.1546 22.6673 
511 1 10.4618 24.411 24.411 
512 1 12.2055 26.1546 26.1546 
513 1 13.9491 0 0 
514 1 15.6928 1.74364 1.74364 
515 1 13.9491 0 3.48728 
516 1 15.6928 1.74364 5.23092 
517 1 13.9491 0 6.97456 
518 1 15.6928 1.74364 8.7182 
519 1 13.9491 0 10.4618 
520 1 15.6928 1.74364 12.2055 
521 1 13.9491 0 13.9491 
522 1 15.6928 1.74364 15.6928 
523 1 13.9491 0 17.4364 
524 1 15.6928 1.74364 19.18 
525 1 13.9491 0 20.9237 
526 1 15.6928 1.74364 22.6673 
527 1 13.9491 0 24.411 
528 1 15.6928 1.74364 26.1546 
529 1 13.9491 3.48728 0 
530 1 15.6928 5.23092 1.74364 
531 1 13.9491 3.48728 3.48728 
532 1 15.6928 5.23092 5.23092 
533 1 13.9491 3.48728 6.97456 
534 1 15.6928 5.23092 8.7182 
535 1 13.9491 3.48728 10.4618 
536 1 15.6928 5.23092 12.2055 
537 1 13.9491 3.48728 13.9491 
538 1 15.6928 5.23092 15.6928 
539 1 13.9491 3.48728 17.4364 
540 1 15.6928 5.23092 19.18 
541 1 13.9491 3.48728 20.9237 
542 1 15.6928 5.23092 22.6673 
543 1 13.9491 3.48728 24.411 
544 1 15.6928 5.23092 26.1546 
545 1 13.9491 6.97456 0 
546 1 15.6928 8.7182 1.74364 
547 1 13.9491 6.97456 3.48728 
548 1 15.6928 8.7182 5.23092 
549 1 13.9491 6.97456 6.97456 
550 1 15.6928 8.7182 8.7182 
551 1 13.9491 6.97456 10.4618 
552 1 15.6928 8.7182 12.2055 
553 1 13.9491 6.97456 13.9491 
554 1 15.6928 8.7182 15.6928 
555 1 13.9491 6.97456 17.4364 
556 1 15.6928 8.7182 19.18 
557 1 13.9491 6.97456 20.9237 
558 1 15.6928 8.7182 22.6673 
559 1 13.9491 6.97456 24.411 
560 1 15.6928 8.7182 26.1546 
561 1 13.9491 10.4618 0 
562 1 15.6928 12.2055 1.74364 
563 1 13.9491 10.4618 3.48728 
564 1 15.6928 12.2055 5.23092 
565 1 13.9491 10.4618 6.97456 
566 1 15.6928 12.2055 8.7182 
567 1 13.9491 10.4618 10.4618 
568 1 15.6928 12.2055 12.2055 
569 1 13.9491 10.4618 13.9491 
570 1 15.6928 12.2055 15.6928 
571 1 13.9491 10.4618 17.4364 
572 1 15.6928 12.2055 19.18 
573 1 13.9491 10.4618 20.9237 
574 1 15.6928 12.2055 22.6673 
575 1 13.9491 10.4618 24.411 
576 1 15.6928 12.2055 26.1546 
577 1 13.9491 13.9491 0 
578 1 15.6928 15.6928 1.74364 
579 1 13.9491 13.9491 3.48728 
580 1 15.6928 15.6928 5.23092 
581 1 13.9491 13.9491 6.97456 
582 1 15.6928 15.6928 8.7182 
583 1 13.9491 13.9491 10.4618 
584 1 15.6928 15.6928 12.2055 
585 1 13.9491 13.9491 13.9491 
586 1 15.6928 15.6928 15.6928 
587 1 13.9491 13.9491 17.4364 
588 1 15.6928 15.6928 19.18 
589 1 13.9491 13.9491 20.9237 
590 1 15.6928 15.6928 22.6673 
591 1 13.9491 13.9491 24.411 
592 1 15.6928 15.6928 26.1546 
593 1 13.9491 17.4364 0 
594 1 15.6928 19.18 1.74364 
595 1 13.9491 17.4364 3.48728 
596 1 15.6928 19.18 5.23092 
597 1 13.9491 17.4364 6.97456 
598 1 15.6928 19.18 8.7182 
599 1 13.9491 17.4364 10.4618 
600 1 15.6928 19.18 12.2055 
601 1 13.9491 17.4364 13.9491 
602 1 15.6928 19.18 15.6928 
603 1 13.9491 17.4364 17.4364 
604 1 15.6928 19.18 19.18 
605 1 13.9491 17.4364 20.9237 
606 1 15.6928 19.18 22.6673 
607 1 13.9491 17.4364 24.411 
608 1 15.6928 19.18 26.1546 
609 1 13.9491 20.9237 0 
610 1 15.6928 22.6673 1.74364 
611 1 13.9491 20.9237 3.48728 
612 1 15.6928 22.6673 5.23092 
613 1 13.9491 20.9237 6.97456 
614 1 15.6928 22.6673 8.7182 
615 1 13.9491 20.9237 10.4618 
616 1 15.6928 22.6673 12.2055 
617 1 13.9491 20.9237 13.9491 
618 1 15.6928 22.6673 15.6928 
619 1 13.9491 20.9237 17.4364 
620 1 15.6928 22.6673 19.18 
621 1 13.9491 20.9237 20.9237 
622 1 15.6928 22.6673 22.6673 
623 1 13.9491 20.9237 24.411 
624 1 15.6928 22.6673 26.1546 
625 1 13.9491 24.411 0 
626 1 15.6928 26.1546 1.74364 
627 1 13.9491 24.411 3.48728 
628 1 15.6928 26.1546 5.23092 
629 1 13.9491 24.411 6.97456 
630 1 15.6928 26.1546 8.7182 
631 1 13.9491 24.411 10.4618 
632 1 15.6928 26.1546 12.2055 
633 1 13.9491 24.411 13.9491 
634 1 15.6928 26.1546 15.6928 
635 1 13.9491 24.411 17.4364 
636 1 15.6928 26.1546 19.18 
637 1 13.9491 24.411 20.9237 
638 1 15.6928 26.1546 22.6673 
639 1 13.9491 24.411 24.411 
640 1 15.6928 26.1546 26.1546 
641 1 17.4364 0 0 
642 1 19.18 1.74364 1.74364 
643 1 17.4364 0 3.48728 
644 1 19.18 1.74364 5.23092 
645 1 17.4364 0 6.97456 
646 1 19.18 1.74364 8.7182 
647 1 17.4364 0 10.4618 
648 1 19.18 1.74364 12.2055 
649 1 17.4364 0 13.9491 
650 1 19.18 1.74364 15.6928 
651 1 17.4364 0 17.4364 
652 1 19.18 1.74364 19.18 
653 1 17.4364 0 20.9237 
654 1 19.18 1.74364 22.6673 
655 1 17.4364 0 24.411 
656 1 19.18 1.74364 26.1546 
657 1 17.4364 3.48728 0 
658 1 19.18 5.23092 1.74364 
659 1 17.4364 3.48728 3.48728 
660 1 19.18 5.23092 5.23092 
661 1 17.4364 3.48728 6.97456 
662 1 19.18 5.23092 8.7182 
663 1 17.4364 3.48728 10.4618 
664 1 19.18 5.23092 12.2055 
665 1 17.4364 3.48728 13.9491 
666 1 19.18 5.23092 15.6928 
667 1 17.4364 3.48728 17.4364 
668 1 19.18 5.23092 19.18 
669 1 17.4364 3.48728 20.9237 
670 1 19.18 5.23092 22.6673 
671 1 17.4364 3.48728 24.411 
672 1 19.18 5.23092 26.1546 
673 1 17.4364 6.97456 0 
674 1 19.18 8.7182 1.74364 
675 1 17.4364 6.97456 3.48728 
676 1 19.18 8.7182 5.23092 
677 1 17.4364 6.97456 6.97456 
678 1 19.18 8.7182 8.7182 
679 1 17.4364 6.97456 10.4618 
680 1 19.18 8.7182 12.2055 
681 1 17.4364 6.97456 13.9491 
682 1 19.18 8.7182 15.6928 
683 1 17.4364 6.97456 17.4364 
684 1 19.18 8.7182 19.18 
685 1 17.4364 6.97456 20.9237 
686 1 19.18 8.7182 22.6673 
687 1 17.4364 6.97456 24.411 
688 1 19.18 8.7182 26.1546 
689 1 17.4364 10.4618 0 
690 1 19.18 12.2055 1.74364 
691 1 17.4364 10.4618 3.48728 
692 1 19.18 12.2055 5.23092 
693 1 17.4364 10.4618 6.97456 
694 1 19.18 12.2055 8.7182 
695 1 17.4364 10.4618 10.4618 
696 1 19.18 12.2055 12.2055 
697 1 17.4364 10.4618 13.9491 
698 1 19.18 12.2055 15.6928 
699 1 17.4364 10.4618 17.4364 
700 1 19.18 12.2055 19.18 
701 1 17.4364 10.4618 20.9237 
702 1 19.18 12.2055 22.6673 
703 1 17.4364 10.4618 24.411 
704 1 19.18 12.2055 26.1546 
705 1 17.4364 13.9491 0 
706 1 19.18 15.6928 1.74364 
707 1 17.4364 13.9491 3.48728 
708 1 19.18 15.6928 5.23092 
709 1 17.4364 13.9491 6.97456 
710 1 19.18 15.6928 8.7182 
711 1 17.4364 13.9491 10.4618 
712 1 19.18 15.6928 12.2055 
713 1 17.4364 13.9491 13.9491 
714 1 19.18 15.6928 15.6928 
715 1 17.4364 13.9491 17.4364 
716 1 19.18 15.6928 19.18 
717 1 17.4364 13.9491 20.9237 
718 1 19.18 15.6928 22.6673 
719 1 17.4364 13.9491 24.411 
720 1 19.18 15.6928 26.1546 
721 1 17.4364 17.4364 0 
722 1 19.18 19.18 1.74364 
723 1 17.4364 17.4364 3.48728 
724 1 19.18 19.18 5.23092 
725 1 17.4364 17.4364 6.97456 
726 1 19.18 19.18 8.7182 
727 1 17.4364 17.4364 10.4618 
728 1 19.18 19.18 12.2055 
729 1 17.4364 17.4364 13.9491 
730 1 19.18 19.18 15.6928 
731 1 17.4364 17.4364 17.4364 
732 1 19.18 19.18 19.18 
733 1 17.4364 17.4364 20.9237 
734 1 19.18 19.18 22.6673 
735 1 17.4364 17.4364 24.411 
736 1 19.18 19.18 26.1546 
737 1 17.4364 20.9237 0 
738 1 19.18 22.6673 1.74364 
739 1 17.4364 20.9237 3.48728 
740 1 19.18 22.6673 5.23092 
741 1 17.4364 20.9237 6.97456 
742 1 19.18 22.6673 8.7182 
743 1 17.4364 20.9237 10.4618 
744 1 19.18 22.6673 12.2055 
745 1 17.4364 20.9237 13.9491 
746 1 19.18 22.6673 15.6928 
747 1 17.4364 20.9237 17.4364 
748 1 19.18 22.6673 19.18 
749 1 17.4364 20.9237 20.9237 
750 1 19.18 22.6673 22.6673 
751 1 17.4364 20.9237 24.411 
752 1 19.18 22.6673 26.1546 
753 1 17.4364 24.411 0 
754 1 19.18 26.1546 1.74364 
755 1 17.4364 24.411 3.48728 
756 1 19.18 26.1546 5.23092 
757 1 17.4364 24.411 6.97456 
758 1 19.18 26.1546 8.7182 
759 1 17.4364 24.411 10.4618 
760 1 19.18 26.1546 12.2055 
761 1 17.4364 24.411 13.9491 
762 1 19.18 26.1546 15.6928 
763 1 17.4364 24.411 17.4364 
764 1 19.18 26.1546 19.18 
765 1 17.4364 24.411 20.9237 
766 1 19.18 26.1546 22.6673 
767 1 17.4364 24.411 24.411 
768 1 19.18 26.1546 26.1546 
769 1 20.9237 0 0 
770 1 22.6673 1.74364 1.74364 
771 1 20.9237 0 3.48728 
772 1 22.6673 1.74364 5.23092 
773 1 20.9237 0 6.97456 
774 1 22.6673 1.74364 8.7182 
775 1 20.9237 0 10.4618 
776 1 22.6673 1.74364 12.2055 
777 1 20.9237 0 13.9491 
778 1 22.6673 1.74364 15.6928 
779 1 20.9237 0 17.4364 
780 1 22.6673 1.74364 19.18 
781 1 20.9237 0 20.9237 
782 1 22.6673 1.74364 22.6673 
783 1 20.9237 0 24.411 
784 1 22.6673 1.74364 26.1546 
785 1 20.9237 3.48728 0 
786 1 22.6673 5.23092 1.74364 
787 1 20.9237 3.48728 3.48728 
788 1 22.6673 5.23092 5.23092 
789 1 20.9237 3.48728 6.97456 
790 1 22.6673 5.23092 8.7182 
791 1 20.9237 3.48728 10.4618 
792 1 22.6673 5.23092 12.2055 
793 1 20.9237 3.48728 13.9491 
794 1 22.6673 5.23092 15.6928 
795 1 20.9237 3.48728 17.4364 
796 1 22.6673 5.23092 19.18 
797 1 20.9237 3.48728 20.9237 
798 1 22.6673 5.23092 22.6673 
799 1 20.9237 3.48728 24.411 
800 1 22.6673 5.23092 26.1546 
801 1 20.9237 6.97456 0 
802 1 22.6673 8.7182 1.74364 
803 1 20.9237 6.97456 3.48728 
804 1 22.6673 8.7182 5.23092 
805 1 20.9237 6.97456 6.97456 
806 1 22.6673 8.7182 8.7182 
807 1 20.9237 6.97456 10.4618 
808 1 22.6673 8.7182 12.2055 
809 1 20.9237 6.97456 13.9491 
810 1 22.6673 8.7182 15.6928 
811 1 20.9237 6.97456 17.4364 
812 1 22.6673 8.7182 19.18 
813 1 20.9237 6.97456 20.9237 
814 1 22.6673 8.7182 22.6673 
815 1 20.9237 6.97456 24.411 
816 1 22.6673 8.7182 26.1546 
817 1 20.9237 10.4618 0 
818 1 22.6673 12.2055 1.74364 
819 1 20.9237 10.4618 3.48728 
820 1 22.6673 12.2055 5.23092 
821 1 20.9237 10.4618 6.97456 
822 1 22.6673 12.2055 8.7182 
823 1 20.9237 10.4618 10.4618 
824 1 22.6673 12.2055 12.2055 
825 1 20.9237 10.4618 13.9491 
826 1 22.6673 12.2055 15.6928 
827 1 20.9237 10.4618 17.4364 
828 1 22.6673 12.2055 19.18 
829 1 20.9237 10.4618 20.9237 
830 1 22.6673 12.2055 22.6673 
831 1 20.9237 10.4618 24.411 
832 1 22.6673 12.2055 26.1546 
833 1 20.9237 13.9491 0 
834 1 22.6673 15.6928 1.74364 
835 1 20.9237 13.9491 3.48728 
836 1 22.6673 15.6928 5.23092 
837 1 20.9237 13.9491 6.97456 
838 1 22.6673 15.6928 8.7182 
839 1 20.9237 13.9491 10.4618 
840 1 22.6673 15.6928 12.2055 
841 1 20.9237 13.9491 13.9491 
842 1 22.6673 15.6928 15.6928 
843 1 20.9237 13.9491 17.4364 
844 1 22.6673 15.6928 19.18 
845 1 20.9237 13.9491 20.9237 
846 1 22.6673 15.6928 22.6673 
847 1 20.9237 13.9491 24.411 
848 1 22.6673 15.6928 26.1546 
849 1 20.9237 17.4364 0 
850 1 22.6673 19.18 1.74364 
851 1 20.9237 17.4364 3.48728 
852 1 22.6673 19.18 5.23092 
853 1 20.9237 17.4364 6.97456 
854 1 22.6673 19.18 8.7182 
855 1 20.9237 17.4364 10.4618 
856 1 22.6673 19.18 12.2055 
857 1 20.9237 17.4364 13.9491 
858 1 22.6673 19.18 15.6928 
859 1 20.9237 17.4364 17.4364 
860 1 22.6673 19.18 19.18 
861 1 20.9237 17.4364 20.9237 
862 1 22.6673 19.18 22.6673 
863 1 20.9237 17.4364 24.411 
864 1 22.6673 19.18 26.1546 
865 1 20.9237 20.9237 0 
866 1 22.6673 22.6673 1.74364 
867 1 20.9237 20.9237 3.48728 
868 1 22.6673 22.6673 5.23092 
869 1 20.9237 20.9237 6.97456 
870 1 22.6673 22.6673 8.7182 
871 1 20.9237 20.9237 10.4618 
872 1 22.6673 22.6673 12.2055 
873 1 20.9237 20.9237 13.9491 
874 1 22.6673 22.6673 15.6928 
875 1 20.9237 20.9237 17.4364 
876 1 22.6673 22.6673 19.18 
877 1 20.9237 20.9237 20.9237 
878 1 22.6673 22.6673 22.6673 
879 1 20.9237 20.9237 24.411 
880 1 22.6673 22.6673 26.1546 
881 1 20.9237 24.411 0 
882 1 22.6673 26.1546 1.74364 
883 1 20.9237 24.411 3.48728 
884 1 22.6673 26.1546 5.23092 
885 1 20.9237 24.411 6.97456 
886 1 22.6673 26.1546 8.7182 
887 1 20.9237 24.411 10.4618 
888 1 22.6673 26.1546 12.2055 
889 1 20.9237 24.411 13.9491 
890 1 22.6673 26.1546 15.6928 
891 1 20.9237 24.411 17.4364 
892 1 22.6673 26.1546 19.18 
893 1 20.9237 24.411 20.9237 
894 1 22.6673 26.1546 22.6673 
895 1 20.9237 24.411 24.411 
896 1 22.6673 26.1546 26.1546 
897 1 24.411 0 0 
898 1 26.1546 1.74364 1.74364 
899 1 24.411 0 3.48728 
900 1 26.1546 1.74364 5.23092 
901 1 24.411 0 6.97456 
902 1 26.1546 1.74364 8.7182 
903 1 24.411 0 10.4618 
904 1 26.1546 1.74364 12.2055 
905 1 24.411 0 13.9491 
906 1 26.1546 1.74364 15.6928 
907 1 24.411 0 17.4364 
908 1 26.1546 1.74364 19.18 
909 1 24.411 0 20.9237 
910 1 26.1546 1.74364 22.6673 
911 1 24.411 0 24.411 
912 1 26.1546 1.74364 26.1546 
913 1 24.411 3.48728 0 
914 1 26.1546 5.23092 1.74364 
915 1 24.411 3.48728 3.48728 
916 1 26.1546 5.23092 5.23092 
917 1 24.411 3.48728 6.97456 
918 1 26.1546 5.23092 8.7182 
919 1 24.411 3.48728 10.4618 
920 1 26.1546 5.23092 12.2055 
921 1 24.411 3.48728 13.9491 
922 1 26.1546 5.23092 15.6928 
923 1 24.411 3.48728 17.4364 
924 1 26.1546 5.23092 19.18 
925 1 24.411 3.48728 20.9237 
926 1 26.1546 5.23092 22.6673 
927 1 24.411 3.48728 24.411 
928 1 26.1546 5.23092 26.1546 
929 1 24.411 6.97456 0 
930 1 26.1546 8.7182 1.74364 
931 1 24.411 6.97456 3.48728 
932 1 26.1546 8.7182 5.23092 
933 1 24.411 6.97456 6.97456 
934 1 26.1546 8.7182 8.7182 
935 1 24.411 6.97456 10.4618 
936 1 26.1546 8.7182 12.2055 
937 1 24.411 6.97456 13.9491 
938 1 26.1546 8.7182 15.6928 
939 1 24.411 6.97456 17.4364 
940 1 26.1546 8.7182 19.18 
941 1 24.411 6.97456 20.9237 
942 1 26.1546 8.7182 22.6673 
943 1 24.411 6.97456 24.411 
944 1 26.1546 8.7182 26.1546 
945 1 24.411 10.4618 0 
946 1 26.1546 12.2055 1.74364 
947 1 24.411 10.4618 3.48728 
948 1 26.1546 12.2055 5.23092 
949 1 24.411 10.4618 6.97456 
950 1 26.1546 12.2055 8.7182 
951 1 24.411 10.4618 10.4618 
952 1 26.1546 12.2055 12.2055 
953 1 24.411 10.4618 13.9491 
954 1 26.1546 12.2055 15.6928 
955 1 24.411 10.4618 17.4364 
956 1 26.1546 12.2055 19.18 
957 1 24.411 10.4618 20.9237 
958 1 26.1546 12.2055 22.6673 
959 1 24.411 10.4618 24.411 
960 1 26.1546 12.2055 26.1546 
961 1 24.411 13.9491 0 
962 1 26.1546 15.6928 1.74364 
963 1 24.411 13.9491 3.48728 
964 1 26.1546 15.6928 5.23092 
965 1 24.411 13.9491 6.97456 
966 1 26.1546 15.6928 8.7182 
967 1 24.411 13.9491 10.4618 
968 1 26.1546 15.6928 12.2055 
969 1 24.411 13.9491 13.9491 
970 1 26.1546 15.6928 15.6928 
971 1 24.411 13.9491 17.4364 
972 1 26.1546 15.6928 19.18 
973 1 24.411 13.9491 20.9237 
974 1 26.1546 15.6928 22.6673 
975 1 24.411 13.9491 24.411 
976 1 26.1546 15.6928 26.1546 
977 1 24.411 17.4364 0 
978 1 26.1546 19.18 1.74364 
979 1 24.411 17.4364 3.48728 
980 1 26.1546 19.18 5.23092 
981 1 24.411 17.4364 6.97456 
982 1 26.1546 19.18 8.7182 
983 1 24.411 17.4364 10.4618 
984 1 26.1546 19.18 12.2055 
985 1 24.411 17.4364 13.9491 
986 1 26.1546 19.18 15.6928 
987 1 24.411 17.4364 17.4364 
988 1 26.1546 19.18 19.18 
989 1 24.411 17.4364 20.9237 
990 1 26.1546 19.18 22.6673 
991 1 24.411 17.4364 24.411 
992 1 26.1546 19.18 26.1546 
993 1 24.411 20.9237 0 
994 1 26.1546 22.6673 1.74364 
995 1 24.411 20.9237 3.48728 
996 1 26.1546 22.6673 5.23092 
997 1 24.411 20.9237 6.97456 
998 1 26.1546 22.6673 8.7182 
999 1 24.411 20.9237 10.4618 
1000 1 26.1546 22.6673 12.2055 
1001 1 24.411 20.9237 13.9491 
1002 1 26.1546 22.6673 15.6928 
1003 1 24.411 20.9237 17.4364 
1004 1 26.1546 22.6673 19.18 
1005 1 24.411 20.9237 20.9237 
1006 1 26.1546 22.6673 22.6673 
1007 1 24.411 20.9237 24.411 
1008 1 26.1546 22.6673 26.1546 
1009 1 24.411 24.411 0 
1010 1 26.1546 26.1546 1.74364 
1011 1 24.411 24.411 3.48728 
1012 1 26.1546 26.1546 5.23092 
1013 1 24.411 24.411 6.97456 
1014 1 26.1546 26.1546 8.7182 
1015 1 24.411 24.411 10.4618 
1016 1 26.1546 26.1546 12.2055 
1017 1 24.411 24.411 13.9491 
1018 1 26.1546 26.1546 15.6928 
1019 1 24.411 24.411 17.4364 
1020 1 26.1546 26.1546 19.18 
1021 1 24.411 24.411 20.9237 
1022 1 26.1546 26.1546 22.6673 
1023 1 24.411 24.411 24.411 
ITEM: TIMESTEP
1
ITEM: NUMBER OF ATOMS
1023
ITEM: BOX BOUNDS xy xz yz pp pp pp
0 27.8982 0
0 27.8982 0
0 27.8982 0
ITEM: ATOMS id type x y z 