 
 80 atoms 
 
 1 atom types
 0.00000000000000000000 5.43100000125322956990 xlo xhi
 0.00000000000000000000 5.43100000125322956990 ylo yhi
 0.00000000000000000000 54.31000001253229925169 zlo zhi
 
 Atoms 
 
	1	1	0.00000000000000000000	0.00000000000000000000	0.00000000000000000000
	2	1	2.71550000062661478495	2.71550000062661478495	0.00000000000000000000
	3	1	2.71550000062661478495	0.00000000000000000000	2.71550000062661478495
	4	1	0.00000000000000000000	2.71550000062661478495	2.71550000062661478495
	5	1	1.35775000031330739247	1.35775000031330739247	1.35775000031330739247
	6	1	4.07325000093992173333	4.07325000093992173333	1.35775000031330739247
	7	1	4.07325000093992173333	1.35775000031330739247	4.07325000093992173333
	8	1	1.35775000031330739247	4.07325000093992173333	4.07325000093992173333
	9	1	0.00000000000000000000	0.00000000000000000000	5.43100000125322956990
	10	1	2.71550000062661478495	2.71550000062661478495	5.43100000125322956990
	11	1	2.71550000062661478495	0.00000000000000000000	8.14650000187984346667
	12	1	0.00000000000000000000	2.71550000062661478495	8.14650000187984346667
	13	1	1.35775000031330739247	1.35775000031330739247	6.78875000156653740646
	14	1	4.07325000093992173333	4.07325000093992173333	6.78875000156653740646
	15	1	4.07325000093992173333	1.35775000031330739247	9.50425000219315130323
	16	1	1.35775000031330739247	4.07325000093992173333	9.50425000219315130323
	17	1	0.00000000000000000000	0.00000000000000000000	10.86200000250645913979
	18	1	2.71550000062661478495	2.71550000062661478495	10.86200000250645913979
	19	1	2.71550000062661478495	0.00000000000000000000	13.57750000313307481292
	20	1	0.00000000000000000000	2.71550000062661478495	13.57750000313307481292
	21	1	1.35775000031330739247	1.35775000031330739247	12.21975000281976697636
	22	1	4.07325000093992173333	4.07325000093992173333	12.21975000281976697636
	23	1	4.07325000093992173333	1.35775000031330739247	14.93525000344638087313
	24	1	1.35775000031330739247	4.07325000093992173333	14.93525000344638087313
	25	1	0.00000000000000000000	0.00000000000000000000	16.29300000375968693334
	26	1	2.71550000062661478495	2.71550000062661478495	16.29300000375968693334
	27	1	2.71550000062661478495	0.00000000000000000000	19.00850000438630260646
	28	1	0.00000000000000000000	2.71550000062661478495	19.00850000438630260646
	29	1	1.35775000031330739247	1.35775000031330739247	17.65075000407299299354
	30	1	4.07325000093992173333	4.07325000093992173333	17.65075000407299299354
	31	1	4.07325000093992173333	1.35775000031330739247	20.36625000469960866667
	32	1	1.35775000031330739247	4.07325000093992173333	20.36625000469960866667
	33	1	0.00000000000000000000	0.00000000000000000000	21.72400000501291827959
	34	1	2.71550000062661478495	2.71550000062661478495	21.72400000501291827959
	35	1	2.71550000062661478495	0.00000000000000000000	24.43950000563953395272
	36	1	0.00000000000000000000	2.71550000062661478495	24.43950000563953395272
	37	1	1.35775000031330739247	1.35775000031330739247	23.08175000532622433980
	38	1	4.07325000093992173333	4.07325000093992173333	23.08175000532622433980
	39	1	4.07325000093992173333	1.35775000031330739247	25.79725000595284001292
	40	1	1.35775000031330739247	4.07325000093992173333	25.79725000595284001292
	41	1	0.00000000000000000000	0.00000000000000000000	27.15500000626614962584
	42	1	2.71550000062661478495	2.71550000062661478495	27.15500000626614962584
	43	1	2.71550000062661478495	0.00000000000000000000	29.87050000689276529897
	44	1	0.00000000000000000000	2.71550000062661478495	29.87050000689276529897
	45	1	1.35775000031330739247	1.35775000031330739247	28.51275000657945568605
	46	1	4.07325000093992173333	4.07325000093992173333	28.51275000657945568605
	47	1	4.07325000093992173333	1.35775000031330739247	31.22825000720607135918
	48	1	1.35775000031330739247	4.07325000093992173333	31.22825000720607135918
	49	1	0.00000000000000000000	0.00000000000000000000	32.58600000751937386667
	50	1	2.71550000062661478495	2.71550000062661478495	32.58600000751937386667
	51	1	2.71550000062661478495	0.00000000000000000000	35.30150000814598598708
	52	1	0.00000000000000000000	2.71550000062661478495	35.30150000814598598708
	53	1	1.35775000031330739247	1.35775000031330739247	33.94375000783268347959
	54	1	4.07325000093992173333	4.07325000093992173333	33.94375000783268347959
	55	1	4.07325000093992173333	1.35775000031330739247	36.65925000845929560001
	56	1	1.35775000031330739247	4.07325000093992173333	36.65925000845929560001
	57	1	0.00000000000000000000	0.00000000000000000000	38.01700000877260521293
	58	1	2.71550000062661478495	2.71550000062661478495	38.01700000877260521293
	59	1	2.71550000062661478495	0.00000000000000000000	40.73250000939921733334
	60	1	0.00000000000000000000	2.71550000062661478495	40.73250000939921733334
	61	1	1.35775000031330739247	1.35775000031330739247	39.37475000908591482585
	62	1	4.07325000093992173333	4.07325000093992173333	39.37475000908591482585
	63	1	4.07325000093992173333	1.35775000031330739247	42.09025000971252694626
	64	1	1.35775000031330739247	4.07325000093992173333	42.09025000971252694626
	65	1	0.00000000000000000000	0.00000000000000000000	43.44800001002583655918
	66	1	2.71550000062661478495	2.71550000062661478495	43.44800001002583655918
	67	1	2.71550000062661478495	0.00000000000000000000	46.16350001065244867959
	68	1	0.00000000000000000000	2.71550000062661478495	46.16350001065244867959
	69	1	1.35775000031330739247	1.35775000031330739247	44.80575001033914617210
	70	1	4.07325000093992173333	4.07325000093992173333	44.80575001033914617210
	71	1	4.07325000093992173333	1.35775000031330739247	47.52125001096575829251
	72	1	1.35775000031330739247	4.07325000093992173333	47.52125001096575829251
	73	1	0.00000000000000000000	0.00000000000000000000	48.87900001127906790543
	74	1	2.71550000062661478495	2.71550000062661478495	48.87900001127906790543
	75	1	2.71550000062661478495	0.00000000000000000000	51.59450001190568002585
	76	1	0.00000000000000000000	2.71550000062661478495	51.59450001190568002585
	77	1	1.35775000031330739247	1.35775000031330739247	50.23675001159237751835
	78	1	4.07325000093992173333	4.07325000093992173333	50.23675001159237751835
	79	1	4.07325000093992173333	1.35775000031330739247	52.95225001221898963877
	80	1	1.35775000031330739247	4.07325000093992173333	52.95225001221898963877
