ITEM: TIMESTEP
0
ITEM: NUMBER OF ATOMS
80
ITEM: BOX BOUNDS pp pp ss
0 5.431
0 5.431
-0.005431 52.9577
ITEM: ATOMS id type x y z fx fy fz 
1 1 0 0 0 -4.82947e-15 -4.55191e-15 -0.820735 
2 1 2.7155 2.7155 0 -1.55986e-14 -1.55986e-14 -0.820735 
3 1 2.7155 0 2.7155 -6.14786e-15 -6.77236e-15 -6.05072e-15 
4 1 0 2.7155 2.7155 -5.39846e-15 -5.48173e-15 -6.06459e-15 
5 1 1.35775 1.35775 1.35775 2.9976e-15 3.80251e-15 0.840089 
6 1 4.07325 4.07325 1.35775 1.84297e-14 1.80411e-14 0.840089 
7 1 4.07325 1.35775 4.07325 8.93036e-15 3.17107e-15 9.86711e-15 
8 1 1.35775 4.07325 4.07325 2.1233e-15 9.22179e-15 8.13932e-15 
9 1 0 0 5.431 -3.76782e-15 -3.61516e-15 -1.45717e-16 
10 1 2.7155 2.7155 5.431 -5.73153e-15 -7.17482e-15 -4.50334e-15 
13 1 1.35775 1.35775 6.78875 -1.17961e-16 4.16334e-17 -1.99979e-14 
14 1 4.07325 4.07325 6.78875 1.04847e-14 1.02765e-14 -1.85477e-14 
11 1 2.7155 0 8.1465 -3.9066e-15 -3.00454e-15 2.22808e-14 
12 1 0 2.7155 8.1465 -3.07393e-15 -4.01762e-15 2.27318e-14 
15 1 4.07325 1.35775 9.50425 7.36911e-15 -3.46945e-17 -2.91434e-16 
16 1 1.35775 4.07325 9.50425 -7.49401e-16 7.26502e-15 -5.55112e-16 
17 1 0 0 10.862 -2.76862e-15 -2.81719e-15 -2.08167e-15 
18 1 2.7155 2.7155 10.862 -7.0291e-15 -7.54952e-15 -5.18335e-15 
19 1 2.7155 0 13.5775 -6.245e-16 -5.89806e-16 -1.89918e-14 
20 1 0 2.7155 13.5775 -2.08167e-16 4.16334e-16 -1.99493e-14 
21 1 1.35775 1.35775 12.2198 6.93889e-17 1.80411e-16 3.40006e-16 
22 1 4.07325 4.07325 12.2198 1.0332e-14 9.67976e-15 5.21111e-15 
23 1 4.07325 1.35775 14.9353 1.45717e-16 -1.249e-16 -5.48173e-16 
24 1 1.35775 4.07325 14.9353 -3.46945e-17 1.54737e-15 -5.41234e-16 
25 1 0 0 16.293 -3.95517e-15 -5.25968e-15 3.13638e-15 
26 1 2.7155 2.7155 16.293 -4.88498e-15 -5.00988e-15 -4.26742e-15 
27 1 2.7155 0 19.0085 -8.88178e-16 -7.63278e-17 -4.14183e-14 
28 1 0 2.7155 19.0085 -9.15934e-16 -9.50628e-16 -4.10019e-14 
29 1 1.35775 1.35775 17.6508 7.84095e-16 3.95517e-16 4.00444e-14 
30 1 4.07325 4.07325 17.6508 9.20791e-15 9.00668e-15 4.05093e-14 
31 1 4.07325 1.35775 20.3663 3.407e-15 -2.08167e-15 4.0197e-14 
32 1 1.35775 4.07325 20.3663 -2.15106e-15 3.407e-15 4.09117e-14 
33 1 0 0 21.724 -3.60822e-15 -3.9968e-15 -3.85733e-14 
34 1 2.7155 2.7155 21.724 -4.85029e-15 -4.66294e-15 -4.3146e-14 
35 1 2.7155 0 24.4395 -8.88178e-16 -7.63278e-17 -4.14183e-14 
36 1 0 2.7155 24.4395 -9.15934e-16 -9.50628e-16 -4.10019e-14 
37 1 1.35775 1.35775 23.0818 -3.747e-16 -7.63278e-16 4.12309e-14 
38 1 4.07325 4.07325 23.0818 9.38138e-15 9.12465e-15 4.17999e-14 
39 1 4.07325 1.35775 25.7973 3.407e-15 -2.08167e-15 4.0197e-14 
40 1 1.35775 4.07325 25.7973 -2.15106e-15 3.407e-15 4.09117e-14 
41 1 0 0 27.155 -3.60822e-15 -3.9968e-15 -3.85733e-14 
42 1 2.7155 2.7155 27.155 -4.85029e-15 -4.66294e-15 -4.3146e-14 
43 1 2.7155 0 29.8705 -1.80411e-16 4.23273e-16 -4.02803e-14 
44 1 0 2.7155 29.8705 2.35922e-16 1.04083e-16 -3.93852e-14 
45 1 1.35775 1.35775 28.5128 -3.747e-16 -7.63278e-16 4.12309e-14 
46 1 4.07325 4.07325 28.5128 9.38138e-15 9.12465e-15 4.17999e-14 
47 1 4.07325 1.35775 31.2283 3.79557e-15 -4.13558e-15 -3.36814e-14 
48 1 1.35775 4.07325 31.2283 -4.42701e-15 3.12944e-15 -3.42504e-14 
49 1 0 0 32.586 -2.16493e-15 -1.29757e-15 7.37535e-14 
50 1 2.7155 2.7155 32.586 -6.04378e-15 -6.41848e-15 7.38645e-14 
51 1 2.7155 0 35.3015 -2.63678e-15 -1.70697e-15 7.64666e-14 
52 1 0 2.7155 35.3015 -2.02616e-15 -1.63758e-15 7.59115e-14 
53 1 1.35775 1.35775 33.9438 1.8735e-16 3.53884e-16 -8.03593e-14 
54 1 4.07325 4.07325 33.9438 8.63198e-15 7.14706e-15 -7.49817e-14 
55 1 4.07325 1.35775 36.6593 3.5319e-15 4.51028e-16 -2.24126e-15 
56 1 1.35775 4.07325 36.6593 -1.38778e-16 3.68455e-15 -2.83107e-15 
57 1 0 0 38.017 -1.39472e-15 -1.44329e-15 2.9976e-15 
58 1 2.7155 2.7155 38.017 -5.94663e-15 -6.64052e-15 -7.35523e-16 
59 1 2.7155 0 40.7325 -2.63678e-15 -1.70697e-15 7.64666e-14 
60 1 0 2.7155 40.7325 -2.02616e-15 -1.63758e-15 7.59115e-14 
61 1 1.35775 1.35775 39.3748 1.17961e-16 2.28983e-16 -7.75977e-14 
62 1 4.07325 4.07325 39.3748 8.49321e-15 7.06379e-15 -7.19702e-14 
63 1 4.07325 1.35775 42.0903 3.5319e-15 4.51028e-16 -2.24126e-15 
64 1 1.35775 4.07325 42.0903 -1.38778e-16 3.68455e-15 -2.83107e-15 
65 1 0 0 43.448 -1.39472e-15 -1.44329e-15 2.9976e-15 
66 1 2.7155 2.7155 43.448 -5.94663e-15 -6.64052e-15 -7.35523e-16 
69 1 1.35775 1.35775 44.8058 1.17961e-16 2.28983e-16 -7.75977e-14 
70 1 4.07325 4.07325 44.8058 8.49321e-15 7.06379e-15 -7.19702e-14 
67 1 2.7155 0 46.1635 -2.63678e-15 -1.70697e-15 7.64666e-14 
68 1 0 2.7155 46.1635 -2.02616e-15 -1.63758e-15 7.59115e-14 
71 1 4.07325 1.35775 47.5213 3.5319e-15 4.51028e-16 -2.24126e-15 
72 1 1.35775 4.07325 47.5213 -1.38778e-16 3.68455e-15 -2.83107e-15 
73 1 0 0 48.879 -1.39472e-15 -1.44329e-15 2.9976e-15 
74 1 2.7155 2.7155 48.879 -5.94663e-15 -6.64052e-15 -7.35523e-16 
75 1 2.7155 0 51.5945 -1.97758e-15 -5.96745e-16 -0.840089 
76 1 0 2.7155 51.5945 -3.95517e-16 -1.249e-16 -0.840089 
77 1 1.35775 1.35775 50.2368 1.17961e-16 2.28983e-16 -7.75977e-14 
78 1 4.07325 4.07325 50.2368 8.49321e-15 7.06379e-15 -7.19702e-14 
79 1 4.07325 1.35775 52.9523 -7.21645e-16 1.44329e-15 0.820735 
80 1 1.35775 4.07325 52.9523 9.99201e-16 -1.4988e-15 0.820735 
ITEM: TIMESTEP
155
ITEM: NUMBER OF ATOMS
80
ITEM: BOX BOUNDS pp pp ss
0 5.431
0 5.431
-0.005431 52.9577
ITEM: ATOMS id type x y z fx fy fz 
1 1 0.490718 -0.490718 0.0807053 3.26254e-07 -9.19519e-07 -4.19511e-07 
2 1 2.22478 3.20622 0.0807053 -9.19565e-07 3.26312e-07 -4.19151e-07 
3 1 2.75945 0.0439528 2.74544 5.75752e-08 5.96269e-08 1.36016e-06 
4 1 -0.0439528 2.67155 2.74544 -2.54574e-07 -2.52501e-07 1.07515e-06 
5 1 1.35775 1.35775 1.35212 1.77033e-07 4.54562e-07 3.28217e-07 
6 1 4.07325 4.07325 1.35212 4.55477e-07 1.73424e-07 3.28231e-07 
7 1 4.07325 1.35775 4.15045 2.7438e-08 1.92302e-08 2.14078e-08 
8 1 1.35775 4.07325 4.06005 1.43173e-07 1.57372e-07 -2.33477e-07 
9 1 0.014798 -0.014798 5.46146 -2.6986e-07 1.15619e-07 1.55414e-07 
10 1 2.7007 2.7303 5.46146 1.18713e-07 -2.7319e-07 1.56734e-07 
13 1 1.35775 1.35775 6.81734 9.05008e-08 7.19003e-08 9.84107e-08 
14 1 4.07325 4.07325 6.81734 9.39241e-08 1.09118e-07 9.84115e-08 
11 1 2.71685 0.00135373 8.17316 -9.95397e-08 -9.7072e-08 2.83794e-07 
12 1 -0.00135372 2.71415 8.17316 -2.00546e-07 -1.98344e-07 3.2552e-07 
15 1 4.07325 1.35775 9.53032 1.1337e-07 2.4614e-07 4.73324e-07 
16 1 1.35775 4.07325 9.52755 2.1483e-07 8.23128e-08 5.61157e-07 
17 1 0.000451579 -0.000451558 10.8847 -1.77205e-07 -3.30709e-07 -1.30017e-07 
18 1 2.71505 2.71595 10.8847 -3.3042e-07 -1.77758e-07 -2.06229e-07 
19 1 2.71554 4.1338e-05 13.5963 -5.0555e-07 -5.05226e-07 -3.87403e-07 
20 1 -4.13224e-05 2.71546 13.5963 1.51248e-07 1.50922e-07 -3.90901e-07 
21 1 1.35775 1.35775 12.2405 2.82602e-07 2.78796e-07 -3.07118e-07 
22 1 4.07325 4.07325 12.2405 2.04767e-07 2.08661e-07 -3.07394e-07 
23 1 4.07325 1.35775 14.9521 2.15134e-07 6.62566e-08 -6.99564e-07 
24 1 1.35775 4.07325 14.952 7.49075e-08 2.23545e-07 -1.5354e-06 
25 1 1.37793e-05 -1.37857e-05 16.3078 -6.34463e-08 1.11717e-07 -8.28348e-07 
26 1 2.71549 2.71551 16.3078 1.12431e-07 -6.25206e-08 -8.73324e-07 
27 1 2.7155 1.25685e-06 19.0194 -1.1658e-07 -1.17693e-07 2.66384e-07 
28 1 -1.28427e-06 2.7155 19.0194 4.45088e-07 4.45952e-07 2.67815e-07 
29 1 1.35775 1.35775 17.6636 -6.39624e-08 -5.93962e-08 -2.66188e-07 
30 1 4.07325 4.07325 17.6636 -3.47227e-08 -3.90667e-08 -2.66039e-07 
31 1 4.07325 1.35775 20.3751 2.70986e-07 -5.93887e-07 -1.41374e-06 
32 1 1.35775 4.07325 20.3751 -6.00121e-07 2.64708e-07 -2.30215e-06 
33 1 4.09113e-07 -4.43574e-07 21.7309 3.00491e-08 3.99289e-07 5.57361e-07 
34 1 2.7155 2.7155 21.7309 3.99021e-07 2.98511e-08 1.24468e-06 
35 1 2.7155 4.73443e-08 24.4425 -4.51304e-08 -4.6486e-08 -4.88494e-07 
36 1 -6.74506e-08 2.7155 24.4425 3.8414e-07 3.85463e-07 -4.88429e-07 
37 1 1.35775 1.35775 23.0867 -3.88206e-07 -3.92661e-07 5.51367e-07 
38 1 4.07325 4.07325 23.0867 -3.57518e-09 8.98138e-10 5.53169e-07 
39 1 4.07325 1.35775 25.7982 -6.70023e-07 3.82784e-07 3.53146e-07 
40 1 1.35775 4.07325 25.7982 3.87507e-07 -6.65248e-07 5.37109e-07 
41 1 2.32173e-08 -1.11434e-08 27.154 2.2024e-09 -1.27717e-07 7.82577e-07 
42 1 2.7155 2.7155 27.154 -1.28907e-07 9.74772e-10 1.28164e-06 
43 1 2.7155 2.002e-08 29.8656 -3.79847e-07 -3.77334e-07 1.16397e-06 
44 1 1.51384e-08 2.7155 29.8656 -2.42322e-07 -2.4482e-07 1.16281e-06 
45 1 1.35775 1.35775 28.5098 2.63224e-07 2.64945e-07 -4.45971e-07 
46 1 4.07325 4.07325 28.5098 -9.28036e-08 -9.4547e-08 -4.47392e-07 
47 1 4.07325 1.35775 31.2213 -5.2087e-08 6.659e-07 -3.28096e-07 
48 1 1.35775 4.07325 31.2213 6.64816e-07 -5.31893e-08 -3.36138e-07 
49 1 3.55234e-09 2.43116e-08 32.5771 -1.17258e-07 -4.30524e-07 7.40032e-07 
50 1 2.7155 2.7155 32.5771 -4.26823e-07 -1.13514e-07 -1.27296e-07 
51 1 2.7155 -1.42285e-09 35.2887 -8.39927e-08 -8.49851e-08 6.81131e-07 
52 1 9.59206e-09 2.7155 35.2887 -1.26959e-07 -1.25934e-07 6.81486e-07 
53 1 1.35775 1.35775 33.9329 2.63698e-07 2.65455e-07 5.04527e-07 
54 1 4.07325 4.07325 33.9329 2.3734e-07 2.35536e-07 5.02142e-07 
55 1 4.07324 1.35776 36.6444 -1.49419e-07 3.40034e-07 -6.76759e-08 
56 1 1.35776 4.07324 36.6444 3.38107e-07 -1.51385e-07 -1.4389e-07 
57 1 -8.02294e-09 5.56784e-09 38.0002 5.10531e-08 -6.33722e-08 6.06113e-08 
58 1 2.7155 2.7155 38.0003 -6.53046e-08 4.91066e-08 -9.77564e-08 
59 1 2.7155 -3.43523e-09 40.7118 1.46793e-07 1.50703e-07 -1.11777e-06 
60 1 -1.03957e-09 2.7155 40.7118 1.16864e-07 1.13058e-07 -1.11755e-06 
61 1 1.35771 1.35771 39.356 6.16513e-08 6.10391e-08 1.71567e-07 
62 1 4.07329 4.07329 39.356 -5.62625e-08 -5.5605e-08 1.69786e-07 
63 1 4.0728 1.3582 42.0675 2.34691e-07 -5.16436e-07 -8.24216e-07 
64 1 1.3582 4.0728 42.0675 -5.15808e-07 2.35236e-07 -8.16631e-07 
65 1 3.03442e-09 5.92614e-10 43.4219 1.4975e-07 1.93823e-07 1.06211e-06 
66 1 2.7155 2.7155 43.4247 1.98665e-07 1.54384e-07 8.19187e-07 
69 1 1.3564 1.3564 44.7791 -5.28888e-07 -5.29124e-07 -1.56461e-06 
70 1 4.0746 4.0746 44.7791 1.7916e-07 1.79355e-07 -1.55917e-06 
67 1 2.7155 6.43974e-09 46.1349 -5.7158e-09 -1.83158e-08 1.25905e-07 
68 1 5.76849e-09 2.7155 46.1349 -2.22678e-08 -9.61011e-09 1.25833e-07 
71 1 4.05845 1.37255 47.4908 -2.52626e-08 6.08107e-08 2.25129e-07 
72 1 1.37255 4.05845 47.4908 5.99673e-08 -2.39664e-08 2.33199e-07 
73 1 2.23834e-09 6.16023e-10 48.8018 -1.55812e-07 -1.38428e-07 -1.01105e-06 
74 1 2.7155 2.7155 48.8922 -9.69754e-09 -2.82827e-08 3.523e-07 
75 1 2.7155 -8.25532e-09 51.6001 -1.47801e-07 -7.31203e-08 3.89674e-07 
76 1 -8.32448e-09 2.7155 51.6001 -7.11995e-08 -1.48124e-07 3.8966e-07 
77 1 1.3138 1.3138 50.2068 4.86771e-07 4.86494e-07 -2.37845e-07 
78 1 4.1172 4.1172 50.2068 -2.85599e-07 -2.85958e-07 -4.80469e-07 
79 1 3.58253 1.84847 52.8715 3.32744e-07 -1.29504e-07 7.34251e-07 
80 1 1.84847 3.58253 52.8715 -1.30601e-07 3.3376e-07 7.29906e-07 
