thermo_style    custom step atoms pe ke etotal press vol lx ly lz
thermo_modify   line one format float %.16g
min_style       cg
min_modify      line quadratic
minimize        1e-14 1e-14 500000 500000
WARNING: Resetting reneighboring criteria during minimization (../min.cpp:168)
Neighbor list info ...
  2 neighbor list requests
  update every 1 steps, delay 0 steps, check yes
  master list distance cutoff = 6.8
Memory usage per processor = 9.43432 Mbytes
Step Atoms PotEng KinEng TotEng Press Volume Lx Ly Lz 
       0       80 -362.5432135557965 0 -362.5432135557965 590.7438365804018 1562.187294449679 5.43100000125323 5.43100000125323 52.96311201222149 
     155       80 -365.2033445072466 0 -365.2033445072466 -2538.914445291195 1562.187294449679 5.43100000125323 5.43100000125323 52.96311201222149 
Loop time of 0.234054 on 1 procs for 155 steps with 80 atoms

Minimization stats:
  Stopping criterion = energy tolerance
  Energy initial, next-to-last, final = 
        -362.543213556     -365.203344507     -365.203344507
  Force two-norm initial, final = 2.34892 7.34312e-06
  Force max component initial, final = 0.840089 2.30215e-06
  Final line search alpha, max atom move = 1 2.30215e-06
  Iterations, force evaluations = 155 303

Pair  time (%) = 0.230694 (98.5645)
Neigh time (%) = 0 (0)
Comm  time (%) = 0.00193024 (0.824698)
Outpt time (%) = 0 (0)
Other time (%) = 0.00142956 (0.610782)

Nlocal:    80 ave 80 max 80 min
Histogram: 1 0 0 0 0 0 0 0 0 0
Nghost:    1050 ave 1050 max 1050 min
Histogram: 1 0 0 0 0 0 0 0 0 0
Neighs:    2660 ave 2660 max 2660 min
Histogram: 1 0 0 0 0 0 0 0 0 0
FullNghs:  5320 ave 5320 max 5320 min
Histogram: 1 0 0 0 0 0 0 0 0 0

Total # of neighbors = 5320
Ave neighs/atom = 66.5
Neighbor list builds = 0
Dangerous builds = 0
