 
 250 atoms 
 
 1 atom types
 0.00000000000000000000 17.89010500000000192244 xlo xhi
 0.00000000000000000000 17.89010500000000192244 ylo yhi
 0.00000000000000000000 17.89010500000000192244 zlo zhi
 0.00000000000000000000 0.00000000000000000000 0.00000000000000000000 xy xz yz
 
 Atoms 
 
	1	1	0.00000000000000000000	0.00000000000000000000	0.00000000000000000000
	2	1	1.78901050000000005902	1.78901050000000005902	1.78901050000000005902
	3	1	0.00000000000000000000	0.00000000000000000000	3.57802100000000011804
	4	1	1.78901050000000005902	1.78901050000000005902	5.36703150000000039910
	5	1	0.00000000000000000000	0.00000000000000000000	7.15604200000000023607
	6	1	1.78901050000000005902	1.78901050000000005902	8.94505250000000096122
	7	1	0.00000000000000000000	0.00000000000000000000	10.73406300000000079820
	8	1	1.78901050000000005902	1.78901050000000005902	12.52307350000000063517
	9	1	0.00000000000000000000	0.00000000000000000000	14.31208400000000047214
	10	1	1.78901050000000005902	1.78901050000000005902	16.10109450000000208547
	11	1	0.00000000000000000000	3.57802100000000011804	0.00000000000000000000
	12	1	1.78901050000000005902	5.36703150000000039910	1.78901050000000005902
	13	1	0.00000000000000000000	3.57802100000000011804	3.57802100000000011804
	14	1	1.78901050000000005902	5.36703150000000039910	5.36703150000000039910
	15	1	0.00000000000000000000	3.57802100000000011804	7.15604200000000023607
	16	1	1.78901050000000005902	5.36703150000000039910	8.94505250000000096122
	17	1	0.00000000000000000000	3.57802100000000011804	10.73406300000000079820
	18	1	1.78901050000000005902	5.36703150000000039910	12.52307350000000063517
	19	1	0.00000000000000000000	3.57802100000000011804	14.31208400000000047214
	20	1	1.78901050000000005902	5.36703150000000039910	16.10109450000000208547
	21	1	0.00000000000000000000	7.15604200000000023607	0.00000000000000000000
	22	1	1.78901050000000005902	8.94505250000000096122	1.78901050000000005902
	23	1	0.00000000000000000000	7.15604200000000023607	3.57802100000000011804
	24	1	1.78901050000000005902	8.94505250000000096122	5.36703150000000039910
	25	1	0.00000000000000000000	7.15604200000000023607	7.15604200000000023607
	26	1	1.78901050000000005902	8.94505250000000096122	8.94505250000000096122
	27	1	0.00000000000000000000	7.15604200000000023607	10.73406300000000079820
	28	1	1.78901050000000005902	8.94505250000000096122	12.52307350000000063517
	29	1	0.00000000000000000000	7.15604200000000023607	14.31208400000000047214
	30	1	1.78901050000000005902	8.94505250000000096122	16.10109450000000208547
	31	1	0.00000000000000000000	10.73406300000000079820	0.00000000000000000000
	32	1	1.78901050000000005902	12.52307350000000063517	1.78901050000000005902
	33	1	0.00000000000000000000	10.73406300000000079820	3.57802100000000011804
	34	1	1.78901050000000005902	12.52307350000000063517	5.36703150000000039910
	35	1	0.00000000000000000000	10.73406300000000079820	7.15604200000000023607
	36	1	1.78901050000000005902	12.52307350000000063517	8.94505250000000096122
	37	1	0.00000000000000000000	10.73406300000000079820	10.73406300000000079820
	38	1	1.78901050000000005902	12.52307350000000063517	12.52307350000000063517
	39	1	0.00000000000000000000	10.73406300000000079820	14.31208400000000047214
	40	1	1.78901050000000005902	12.52307350000000063517	16.10109450000000208547
	41	1	0.00000000000000000000	14.31208400000000047214	0.00000000000000000000
	42	1	1.78901050000000005902	16.10109450000000208547	1.78901050000000005902
	43	1	0.00000000000000000000	14.31208400000000047214	3.57802100000000011804
	44	1	1.78901050000000005902	16.10109450000000208547	5.36703150000000039910
	45	1	0.00000000000000000000	14.31208400000000047214	7.15604200000000023607
	46	1	1.78901050000000005902	16.10109450000000208547	8.94505250000000096122
	47	1	0.00000000000000000000	14.31208400000000047214	10.73406300000000079820
	48	1	1.78901050000000005902	16.10109450000000208547	12.52307350000000063517
	49	1	0.00000000000000000000	14.31208400000000047214	14.31208400000000047214
	50	1	1.78901050000000005902	16.10109450000000208547	16.10109450000000208547
	51	1	3.57802100000000011804	0.00000000000000000000	0.00000000000000000000
	52	1	5.36703150000000039910	1.78901050000000005902	1.78901050000000005902
	53	1	3.57802100000000011804	0.00000000000000000000	3.57802100000000011804
	54	1	5.36703150000000039910	1.78901050000000005902	5.36703150000000039910
	55	1	3.57802100000000011804	0.00000000000000000000	7.15604200000000023607
	56	1	5.36703150000000039910	1.78901050000000005902	8.94505250000000096122
	57	1	3.57802100000000011804	0.00000000000000000000	10.73406300000000079820
	58	1	5.36703150000000039910	1.78901050000000005902	12.52307350000000063517
	59	1	3.57802100000000011804	0.00000000000000000000	14.31208400000000047214
	60	1	5.36703150000000039910	1.78901050000000005902	16.10109450000000208547
	61	1	3.57802100000000011804	3.57802100000000011804	0.00000000000000000000
	62	1	5.36703150000000039910	5.36703150000000039910	1.78901050000000005902
	63	1	3.57802100000000011804	3.57802100000000011804	3.57802100000000011804
	64	1	5.36703150000000039910	5.36703150000000039910	5.36703150000000039910
	65	1	3.57802100000000011804	3.57802100000000011804	7.15604200000000023607
	66	1	5.36703150000000039910	5.36703150000000039910	8.94505250000000096122
	67	1	3.57802100000000011804	3.57802100000000011804	10.73406300000000079820
	68	1	5.36703150000000039910	5.36703150000000039910	12.52307350000000063517
	69	1	3.57802100000000011804	3.57802100000000011804	14.31208400000000047214
	70	1	5.36703150000000039910	5.36703150000000039910	16.10109450000000208547
	71	1	3.57802100000000011804	7.15604200000000023607	0.00000000000000000000
	72	1	5.36703150000000039910	8.94505250000000096122	1.78901050000000005902
	73	1	3.57802100000000011804	7.15604200000000023607	3.57802100000000011804
	74	1	5.36703150000000039910	8.94505250000000096122	5.36703150000000039910
	75	1	3.57802100000000011804	7.15604200000000023607	7.15604200000000023607
	76	1	5.36703150000000039910	8.94505250000000096122	8.94505250000000096122
	77	1	3.57802100000000011804	7.15604200000000023607	10.73406300000000079820
	78	1	5.36703150000000039910	8.94505250000000096122	12.52307350000000063517
	79	1	3.57802100000000011804	7.15604200000000023607	14.31208400000000047214
	80	1	5.36703150000000039910	8.94505250000000096122	16.10109450000000208547
	81	1	3.57802100000000011804	10.73406300000000079820	0.00000000000000000000
	82	1	5.36703150000000039910	12.52307350000000063517	1.78901050000000005902
	83	1	3.57802100000000011804	10.73406300000000079820	3.57802100000000011804
	84	1	5.36703150000000039910	12.52307350000000063517	5.36703150000000039910
	85	1	3.57802100000000011804	10.73406300000000079820	7.15604200000000023607
	86	1	5.36703150000000039910	12.52307350000000063517	8.94505250000000096122
	87	1	3.57802100000000011804	10.73406300000000079820	10.73406300000000079820
	88	1	5.36703150000000039910	12.52307350000000063517	12.52307350000000063517
	89	1	3.57802100000000011804	10.73406300000000079820	14.31208400000000047214
	90	1	5.36703150000000039910	12.52307350000000063517	16.10109450000000208547
	91	1	3.57802100000000011804	14.31208400000000047214	0.00000000000000000000
	92	1	5.36703150000000039910	16.10109450000000208547	1.78901050000000005902
	93	1	3.57802100000000011804	14.31208400000000047214	3.57802100000000011804
	94	1	5.36703150000000039910	16.10109450000000208547	5.36703150000000039910
	95	1	3.57802100000000011804	14.31208400000000047214	7.15604200000000023607
	96	1	5.36703150000000039910	16.10109450000000208547	8.94505250000000096122
	97	1	3.57802100000000011804	14.31208400000000047214	10.73406300000000079820
	98	1	5.36703150000000039910	16.10109450000000208547	12.52307350000000063517
	99	1	3.57802100000000011804	14.31208400000000047214	14.31208400000000047214
	100	1	5.36703150000000039910	16.10109450000000208547	16.10109450000000208547
	101	1	7.15604200000000023607	0.00000000000000000000	0.00000000000000000000
	102	1	8.94505250000000096122	1.78901050000000005902	1.78901050000000005902
	103	1	7.15604200000000023607	0.00000000000000000000	3.57802100000000011804
	104	1	8.94505250000000096122	1.78901050000000005902	5.36703150000000039910
	105	1	7.15604200000000023607	0.00000000000000000000	7.15604200000000023607
	106	1	8.94505250000000096122	1.78901050000000005902	8.94505250000000096122
	107	1	7.15604200000000023607	0.00000000000000000000	10.73406300000000079820
	108	1	8.94505250000000096122	1.78901050000000005902	12.52307350000000063517
	109	1	7.15604200000000023607	0.00000000000000000000	14.31208400000000047214
	110	1	8.94505250000000096122	1.78901050000000005902	16.10109450000000208547
	111	1	7.15604200000000023607	3.57802100000000011804	0.00000000000000000000
	112	1	8.94505250000000096122	5.36703150000000039910	1.78901050000000005902
	113	1	7.15604200000000023607	3.57802100000000011804	3.57802100000000011804
	114	1	8.94505250000000096122	5.36703150000000039910	5.36703150000000039910
	115	1	7.15604200000000023607	3.57802100000000011804	7.15604200000000023607
	116	1	8.94505250000000096122	5.36703150000000039910	8.94505250000000096122
	117	1	7.15604200000000023607	3.57802100000000011804	10.73406300000000079820
	118	1	8.94505250000000096122	5.36703150000000039910	12.52307350000000063517
	119	1	7.15604200000000023607	3.57802100000000011804	14.31208400000000047214
	120	1	8.94505250000000096122	5.36703150000000039910	16.10109450000000208547
	121	1	7.15604200000000023607	7.15604200000000023607	0.00000000000000000000
	122	1	8.94505250000000096122	8.94505250000000096122	1.78901050000000005902
	123	1	7.15604200000000023607	7.15604200000000023607	3.57802100000000011804
	124	1	8.94505250000000096122	8.94505250000000096122	5.36703150000000039910
	125	1	7.15604200000000023607	7.15604200000000023607	7.15604200000000023607
	126	1	8.94505250000000096122	8.94505250000000096122	8.94505250000000096122
	127	1	7.15604200000000023607	7.15604200000000023607	10.73406300000000079820
	128	1	8.94505250000000096122	8.94505250000000096122	12.52307350000000063517
	129	1	7.15604200000000023607	7.15604200000000023607	14.31208400000000047214
	130	1	8.94505250000000096122	8.94505250000000096122	16.10109450000000208547
	131	1	7.15604200000000023607	10.73406300000000079820	0.00000000000000000000
	132	1	8.94505250000000096122	12.52307350000000063517	1.78901050000000005902
	133	1	7.15604200000000023607	10.73406300000000079820	3.57802100000000011804
	134	1	8.94505250000000096122	12.52307350000000063517	5.36703150000000039910
	135	1	7.15604200000000023607	10.73406300000000079820	7.15604200000000023607
	136	1	8.94505250000000096122	12.52307350000000063517	8.94505250000000096122
	137	1	7.15604200000000023607	10.73406300000000079820	10.73406300000000079820
	138	1	8.94505250000000096122	12.52307350000000063517	12.52307350000000063517
	139	1	7.15604200000000023607	10.73406300000000079820	14.31208400000000047214
	140	1	8.94505250000000096122	12.52307350000000063517	16.10109450000000208547
	141	1	7.15604200000000023607	14.31208400000000047214	0.00000000000000000000
	142	1	8.94505250000000096122	16.10109450000000208547	1.78901050000000005902
	143	1	7.15604200000000023607	14.31208400000000047214	3.57802100000000011804
	144	1	8.94505250000000096122	16.10109450000000208547	5.36703150000000039910
	145	1	7.15604200000000023607	14.31208400000000047214	7.15604200000000023607
	146	1	8.94505250000000096122	16.10109450000000208547	8.94505250000000096122
	147	1	7.15604200000000023607	14.31208400000000047214	10.73406300000000079820
	148	1	8.94505250000000096122	16.10109450000000208547	12.52307350000000063517
	149	1	7.15604200000000023607	14.31208400000000047214	14.31208400000000047214
	150	1	8.94505250000000096122	16.10109450000000208547	16.10109450000000208547
	151	1	10.73406300000000079820	0.00000000000000000000	0.00000000000000000000
	152	1	12.52307350000000063517	1.78901050000000005902	1.78901050000000005902
	153	1	10.73406300000000079820	0.00000000000000000000	3.57802100000000011804
	154	1	12.52307350000000063517	1.78901050000000005902	5.36703150000000039910
	155	1	10.73406300000000079820	0.00000000000000000000	7.15604200000000023607
	156	1	12.52307350000000063517	1.78901050000000005902	8.94505250000000096122
	157	1	10.73406300000000079820	0.00000000000000000000	10.73406300000000079820
	158	1	12.52307350000000063517	1.78901050000000005902	12.52307350000000063517
	159	1	10.73406300000000079820	0.00000000000000000000	14.31208400000000047214
	160	1	12.52307350000000063517	1.78901050000000005902	16.10109450000000208547
	161	1	10.73406300000000079820	3.57802100000000011804	0.00000000000000000000
	162	1	12.52307350000000063517	5.36703150000000039910	1.78901050000000005902
	163	1	10.73406300000000079820	3.57802100000000011804	3.57802100000000011804
	164	1	12.52307350000000063517	5.36703150000000039910	5.36703150000000039910
	165	1	10.73406300000000079820	3.57802100000000011804	7.15604200000000023607
	166	1	12.52307350000000063517	5.36703150000000039910	8.94505250000000096122
	167	1	10.73406300000000079820	3.57802100000000011804	10.73406300000000079820
	168	1	12.52307350000000063517	5.36703150000000039910	12.52307350000000063517
	169	1	10.73406300000000079820	3.57802100000000011804	14.31208400000000047214
	170	1	12.52307350000000063517	5.36703150000000039910	16.10109450000000208547
	171	1	10.73406300000000079820	7.15604200000000023607	0.00000000000000000000
	172	1	12.52307350000000063517	8.94505250000000096122	1.78901050000000005902
	173	1	10.73406300000000079820	7.15604200000000023607	3.57802100000000011804
	174	1	12.52307350000000063517	8.94505250000000096122	5.36703150000000039910
	175	1	10.73406300000000079820	7.15604200000000023607	7.15604200000000023607
	176	1	12.52307350000000063517	8.94505250000000096122	8.94505250000000096122
	177	1	10.73406300000000079820	7.15604200000000023607	10.73406300000000079820
	178	1	12.52307350000000063517	8.94505250000000096122	12.52307350000000063517
	179	1	10.73406300000000079820	7.15604200000000023607	14.31208400000000047214
	180	1	12.52307350000000063517	8.94505250000000096122	16.10109450000000208547
	181	1	10.73406300000000079820	10.73406300000000079820	0.00000000000000000000
	182	1	12.52307350000000063517	12.52307350000000063517	1.78901050000000005902
	183	1	10.73406300000000079820	10.73406300000000079820	3.57802100000000011804
	184	1	12.52307350000000063517	12.52307350000000063517	5.36703150000000039910
	185	1	10.73406300000000079820	10.73406300000000079820	7.15604200000000023607
	186	1	12.52307350000000063517	12.52307350000000063517	8.94505250000000096122
	187	1	10.73406300000000079820	10.73406300000000079820	10.73406300000000079820
	188	1	12.52307350000000063517	12.52307350000000063517	12.52307350000000063517
	189	1	10.73406300000000079820	10.73406300000000079820	14.31208400000000047214
	190	1	12.52307350000000063517	12.52307350000000063517	16.10109450000000208547
	191	1	10.73406300000000079820	14.31208400000000047214	0.00000000000000000000
	192	1	12.52307350000000063517	16.10109450000000208547	1.78901050000000005902
	193	1	10.73406300000000079820	14.31208400000000047214	3.57802100000000011804
	194	1	12.52307350000000063517	16.10109450000000208547	5.36703150000000039910
	195	1	10.73406300000000079820	14.31208400000000047214	7.15604200000000023607
	196	1	12.52307350000000063517	16.10109450000000208547	8.94505250000000096122
	197	1	10.73406300000000079820	14.31208400000000047214	10.73406300000000079820
	198	1	12.52307350000000063517	16.10109450000000208547	12.52307350000000063517
	199	1	10.73406300000000079820	14.31208400000000047214	14.31208400000000047214
	200	1	12.52307350000000063517	16.10109450000000208547	16.10109450000000208547
	201	1	14.31208400000000047214	0.00000000000000000000	0.00000000000000000000
	202	1	16.10109450000000208547	1.78901050000000005902	1.78901050000000005902
	203	1	14.31208400000000047214	0.00000000000000000000	3.57802100000000011804
	204	1	16.10109450000000208547	1.78901050000000005902	5.36703150000000039910
	205	1	14.31208400000000047214	0.00000000000000000000	7.15604200000000023607
	206	1	16.10109450000000208547	1.78901050000000005902	8.94505250000000096122
	207	1	14.31208400000000047214	0.00000000000000000000	10.73406300000000079820
	208	1	16.10109450000000208547	1.78901050000000005902	12.52307350000000063517
	209	1	14.31208400000000047214	0.00000000000000000000	14.31208400000000047214
	210	1	16.10109450000000208547	1.78901050000000005902	16.10109450000000208547
	211	1	14.31208400000000047214	3.57802100000000011804	0.00000000000000000000
	212	1	16.10109450000000208547	5.36703150000000039910	1.78901050000000005902
	213	1	14.31208400000000047214	3.57802100000000011804	3.57802100000000011804
	214	1	16.10109450000000208547	5.36703150000000039910	5.36703150000000039910
	215	1	14.31208400000000047214	3.57802100000000011804	7.15604200000000023607
	216	1	16.10109450000000208547	5.36703150000000039910	8.94505250000000096122
	217	1	14.31208400000000047214	3.57802100000000011804	10.73406300000000079820
	218	1	16.10109450000000208547	5.36703150000000039910	12.52307350000000063517
	219	1	14.31208400000000047214	3.57802100000000011804	14.31208400000000047214
	220	1	16.10109450000000208547	5.36703150000000039910	16.10109450000000208547
	221	1	14.31208400000000047214	7.15604200000000023607	0.00000000000000000000
	222	1	16.10109450000000208547	8.94505250000000096122	1.78901050000000005902
	223	1	14.31208400000000047214	7.15604200000000023607	3.57802100000000011804
	224	1	16.10109450000000208547	8.94505250000000096122	5.36703150000000039910
	225	1	14.31208400000000047214	7.15604200000000023607	7.15604200000000023607
	226	1	16.10109450000000208547	8.94505250000000096122	8.94505250000000096122
	227	1	14.31208400000000047214	7.15604200000000023607	10.73406300000000079820
	228	1	16.10109450000000208547	8.94505250000000096122	12.52307350000000063517
	229	1	14.31208400000000047214	7.15604200000000023607	14.31208400000000047214
	230	1	16.10109450000000208547	8.94505250000000096122	16.10109450000000208547
	231	1	14.31208400000000047214	10.73406300000000079820	0.00000000000000000000
	232	1	16.10109450000000208547	12.52307350000000063517	1.78901050000000005902
	233	1	14.31208400000000047214	10.73406300000000079820	3.57802100000000011804
	234	1	16.10109450000000208547	12.52307350000000063517	5.36703150000000039910
	235	1	14.31208400000000047214	10.73406300000000079820	7.15604200000000023607
	236	1	16.10109450000000208547	12.52307350000000063517	8.94505250000000096122
	237	1	14.31208400000000047214	10.73406300000000079820	10.73406300000000079820
	238	1	16.10109450000000208547	12.52307350000000063517	12.52307350000000063517
	239	1	14.31208400000000047214	10.73406300000000079820	14.31208400000000047214
	240	1	16.10109450000000208547	12.52307350000000063517	16.10109450000000208547
	241	1	14.31208400000000047214	14.31208400000000047214	0.00000000000000000000
	242	1	16.10109450000000208547	16.10109450000000208547	1.78901050000000005902
	243	1	14.31208400000000047214	14.31208400000000047214	3.57802100000000011804
	244	1	16.10109450000000208547	16.10109450000000208547	5.36703150000000039910
	245	1	14.31208400000000047214	14.31208400000000047214	7.15604200000000023607
	246	1	16.10109450000000208547	16.10109450000000208547	8.94505250000000096122
	247	1	14.31208400000000047214	14.31208400000000047214	10.73406300000000079820
	248	1	16.10109450000000208547	16.10109450000000208547	12.52307350000000063517
	249	1	14.31208400000000047214	14.31208400000000047214	14.31208400000000047214
	250	1	16.10109450000000208547	16.10109450000000208547	16.10109450000000208547
