 
 500 atoms 
 
 1 atom types
 0.00000000000000000000 21.94760062349999785170 xlo xhi
 0.00000000000000000000 21.94764451865734855573 ylo yhi
 0.00000000000000000000 21.94746893820352084958 zlo zhi
 0.00000000000000134391 0.00000000000000134391 0.08779022691372495579 xy xz yz
 
 Atoms 
 
	1	1	0.00000000000000000000	0.00000000000000000000	0.00000000000000000000
	2	1	2.19476006234999987399	2.19475567284304373672	-0.00438950256668973332
	3	1	2.19476006234999987399	0.00438951134568640790	2.19474689383791021768
	4	1	0.00000000000000026824	2.19914518418873017325	2.19035739127122042191
	5	1	0.00000000000000026824	0.00877902269137281581	4.38949378767582043537
	6	1	2.19476006235000031808	2.20353469553441660977	4.38510428510913108369
	7	1	2.19476006235000031808	0.01316853403705922458	6.58424068151373020896
	8	1	0.00000000000000053649	2.20792420688010304630	6.57985117894704085728
	9	1	0.00000000000000053649	0.01755804538274563162	8.77898757535164087074
	10	1	2.19476006235000031808	2.21231371822578948283	8.77459807278495240723
	11	1	2.19476006235000076217	0.02194755672843204039	10.97373446918954975615
	12	1	0.00000000000000080473	2.21670322957147591936	10.96934496662286129265
	13	1	0.00000000000000080473	0.02633706807411844916	13.16848136302746041792
	14	1	2.19476006235000076217	2.22109274091716235588	13.16409186046077195442
	15	1	2.19476006235000076217	0.03072657941980485793	15.36322825686537285605
	16	1	0.00000000000000107298	2.22548225226284879241	15.35883875429868261620
	17	1	0.00000000000000107298	0.03511609076549126324	17.55797515070328174147
	18	1	2.19476006235000076217	2.22987176360853478485	17.55358564813659327797
	19	1	2.19476006235000120626	0.03950560211117767201	19.75272204454119062689
	20	1	0.00000000000000134122	2.23426127495422122138	19.74833254197449861067
	21	1	0.00000000000000026824	4.38951134568608747344	-0.00877900513337946664
	22	1	2.19476006235000031808	6.58426701852913165425	-0.01316850770006919996
	23	1	2.19476006235000031808	4.39390085703177390997	2.18596788870453107023
	24	1	0.00000000000000053649	6.58865652987481809078	2.18157838613784127446
	25	1	0.00000000000000053649	4.39829036837746034649	4.38071478254244084383
	26	1	2.19476006235000076217	6.59304604122050452730	4.37632527997575149215
	27	1	2.19476006235000076217	4.40267987972314678302	6.57546167638035150560
	28	1	0.00000000000000080473	6.59743555256619096383	6.57107217381366126574
	29	1	0.00000000000000080473	4.40706939106883321955	8.77020857021826216737
	30	1	2.19476006235000076217	6.60182506391187740036	8.76581906765157192751
	31	1	2.19476006235000120626	4.41145890241451965608	10.96495546405617105279
	32	1	0.00000000000000107298	6.60621457525756383689	10.96056596148948081293
	33	1	0.00000000000000107298	4.41584841376020609260	13.15970235789408171456
	34	1	2.19476006235000120626	6.61060408660325027341	13.15531285532739147470
	35	1	2.19476006235000120626	4.42023792510589252913	15.35444925173199237634
	36	1	0.00000000000000134122	6.61499359794893670994	15.35005974916530213648
	37	1	0.00000000000000134122	4.42462743645157896566	17.54919614556990481447
	38	1	2.19476006235000120626	6.61938310929462314647	17.54480664300321279825
	39	1	2.19476006235000165034	4.42901694779726540219	19.74394303940781014717
	40	1	0.00000000000000160947	6.62377262064030958300	19.73955353684112168366
	41	1	0.00000000000000053649	8.77902269137217494688	-0.01755801026675893328
	42	1	2.19476006235000076217	10.97377836421521912769	-0.02194751283344866660
	43	1	2.19476006235000031808	8.78341220271786049523	2.17718888357115147869
	44	1	0.00000000000000080473	10.97816787556090467604	2.17279938100446168292
	45	1	0.00000000000000080473	8.78780171406354781993	4.37193577740906214046
	46	1	2.19476006235000120626	10.98255738690659200074	4.36754627484237190060
	47	1	2.19476006235000076217	8.79219122540923336828	6.56668267124697191406
	48	1	0.00000000000000107298	10.98694689825227754909	6.56229316868028167420
	49	1	0.00000000000000107298	8.79658073675492069299	8.76142956508488168765
	50	1	2.19476006235000120626	10.99133640959796487380	8.75704006251819322415
	51	1	2.19476006235000120626	8.80097024810060624134	10.95617645892279234943
	52	1	0.00000000000000134122	10.99572592094365042215	10.95178695635610210957
	53	1	0.00000000000000134122	8.80535975944629356604	13.15092335276070301120
	54	1	2.19476006235000165034	11.00011543228933774685	13.14653385019401277134
	55	1	2.19476006235000120626	8.80974927079197911439	15.34567024659861367297
	56	1	0.00000000000000160947	11.00450494363502329520	15.34128074403192343311
	57	1	0.00000000000000160947	8.81413878213766643910	17.54041714043652433475
	58	1	2.19476006235000165034	11.00889445498071061991	17.53602763786983587124
	59	1	2.19476006235000165034	8.81852829348335198745	19.73516403427442966745
	60	1	0.00000000000000187771	11.01328396632639616826	19.73077453170774120395
	61	1	0.00000000000000080473	13.16853403705826330850	-0.02633701540013839992
	62	1	2.19476006235000076217	15.36328970990130748930	-0.03072651796682813324
	63	1	2.19476006235000076217	13.17292354840394885684	2.16840987843777188715
	64	1	0.00000000000000107298	15.36767922124699303765	2.16402037587108209138
	65	1	0.00000000000000107298	13.17731305974963618155	4.36315677227568254892
	66	1	2.19476006235000120626	15.37206873259268036236	4.35876726970899230906
	67	1	2.19476006235000120626	13.18170257109532172990	6.55790366611359232252
	68	1	0.00000000000000134122	15.37645824393836591071	6.55351416354690208266
	69	1	0.00000000000000134122	13.18609208244100905461	8.75265055995150298429
	70	1	2.19476006235000120626	15.38084775528405323541	8.74826105738481274443
	71	1	2.19476006235000165034	13.19048159378669460295	10.94739745378941186971
	72	1	0.00000000000000160947	15.38523726662973878376	10.94300795122272162985
	73	1	0.00000000000000160947	13.19487110513238192766	13.14214434762732253148
	74	1	2.19476006235000165034	15.38962677797542610847	13.13775484506063229162
	75	1	2.19476006235000165034	13.19926061647806747601	15.33689124146523319325
	76	1	0.00000000000000187771	15.39401628932111165682	15.33250173889854472975
	77	1	0.00000000000000187771	13.20365012782375480072	17.53163813530314385503
	78	1	2.19476006235000165034	15.39840580066679898152	17.52724863273645539152
	79	1	2.19476006235000209443	13.20803963916944034906	19.72638502914105274044
	80	1	0.00000000000000214596	15.40279531201248452987	19.72199552657436072423
	81	1	0.00000000000000107298	17.55804538274434989376	-0.03511602053351786656
	82	1	2.19476006235000120626	19.75280105558739407456	-0.03950552310020759988
	83	1	2.19476006235000076217	17.56243489409003544210	2.15963087330439229561
	84	1	0.00000000000000134122	19.75719056693307962291	2.15524137073770294393
	85	1	0.00000000000000134122	17.56682440543572099045	4.35437776714230295738
	86	1	2.19476006235000165034	19.76158007827876517126	4.34998826457561271752
	87	1	2.19476006235000120626	17.57121391678141009152	6.54912466098021273098
	88	1	0.00000000000000160947	19.76596958962445427233	6.54473515841352337929
	89	1	0.00000000000000160947	17.57560342812709563987	8.74387155481812428093
	90	1	2.19476006235000165034	19.77035910097013982067	8.73948205225143404107
	91	1	2.19476006235000165034	17.57999293947278118821	10.93861844865603316634
	92	1	0.00000000000000187771	19.77474861231582536902	10.93422894608934292648
	93	1	0.00000000000000187771	17.58438245081846673656	13.13336534249394382812
	94	1	2.19476006235000209443	19.77913812366151091737	13.12897583992725358826
	95	1	2.19476006235000165034	17.58877196216415583763	15.32811223633185448989
	96	1	0.00000000000000214596	19.78352763500720001844	15.32372273376516425003
	97	1	0.00000000000000214596	17.59316147350984138598	17.52285913016976337531
	98	1	2.19476006235000209443	19.78791714635288556678	17.51846962760307491180
	99	1	2.19476006235000209443	17.59755098485552693433	19.71760602400767226072
	100	1	0.00000000000000241420	19.79230665769857111513	19.71321652144098379722
	101	1	4.38952012469999974797	0.00000000000000000000	0.00000000000000000000
	102	1	6.58428018705000006605	2.19475567284304373672	-0.00438950256668973332
	103	1	6.58428018705000006605	0.00438951134568640790	2.19474689383791021768
	104	1	4.38952012469999974797	2.19914518418873017325	2.19035739127122042191
	105	1	4.38952012469999974797	0.00877902269137281581	4.38949378767582043537
	106	1	6.58428018705000006605	2.20353469553441660977	4.38510428510913108369
	107	1	6.58428018705000006605	0.01316853403705922458	6.58424068151373020896
	108	1	4.38952012469999974797	2.20792420688010304630	6.57985117894704085728
	109	1	4.38952012470000063615	0.01755804538274563162	8.77898757535164087074
	110	1	6.58428018705000095423	2.21231371822578948283	8.77459807278495240723
	111	1	6.58428018705000095423	0.02194755672843204039	10.97373446918954975615
	112	1	4.38952012470000063615	2.21670322957147591936	10.96934496662286129265
	113	1	4.38952012470000063615	0.02633706807411844916	13.16848136302746041792
	114	1	6.58428018705000095423	2.22109274091716235588	13.16409186046077195442
	115	1	6.58428018705000095423	0.03072657941980485793	15.36322825686537285605
	116	1	4.38952012470000063615	2.22548225226284879241	15.35883875429868261620
	117	1	4.38952012470000063615	0.03511609076549126324	17.55797515070328174147
	118	1	6.58428018705000095423	2.22987176360853478485	17.55358564813659327797
	119	1	6.58428018705000095423	0.03950560211117767201	19.75272204454119062689
	120	1	4.38952012470000063615	2.23426127495422122138	19.74833254197449861067
	121	1	4.38952012469999974797	4.38951134568608747344	-0.00877900513337946664
	122	1	6.58428018705000006605	6.58426701852913165425	-0.01316850770006919996
	123	1	6.58428018705000006605	4.39390085703177390997	2.18596788870453107023
	124	1	4.38952012469999974797	6.58865652987481809078	2.18157838613784127446
	125	1	4.38952012469999974797	4.39829036837746034649	4.38071478254244084383
	126	1	6.58428018705000006605	6.59304604122050452730	4.37632527997575149215
	127	1	6.58428018705000006605	4.40267987972314678302	6.57546167638035150560
	128	1	4.38952012469999974797	6.59743555256619096383	6.57107217381366126574
	129	1	4.38952012470000063615	4.40706939106883321955	8.77020857021826216737
	130	1	6.58428018705000095423	6.60182506391187740036	8.76581906765157192751
	131	1	6.58428018705000095423	4.41145890241451965608	10.96495546405617105279
	132	1	4.38952012470000063615	6.60621457525756383689	10.96056596148948081293
	133	1	4.38952012470000063615	4.41584841376020609260	13.15970235789408171456
	134	1	6.58428018705000095423	6.61060408660325027341	13.15531285532739147470
	135	1	6.58428018705000095423	4.42023792510589252913	15.35444925173199237634
	136	1	4.38952012470000063615	6.61499359794893670994	15.35005974916530213648
	137	1	4.38952012470000063615	4.42462743645157896566	17.54919614556990481447
	138	1	6.58428018705000095423	6.61938310929462314647	17.54480664300321279825
	139	1	6.58428018705000095423	4.42901694779726540219	19.74394303940781014717
	140	1	4.38952012470000063615	6.62377262064030958300	19.73955353684112168366
	141	1	4.38952012470000063615	8.77902269137217494688	-0.01755801026675893328
	142	1	6.58428018705000095423	10.97377836421521912769	-0.02194751283344866660
	143	1	6.58428018705000095423	8.78341220271786049523	2.17718888357115147869
	144	1	4.38952012470000063615	10.97816787556090467604	2.17279938100446168292
	145	1	4.38952012470000063615	8.78780171406354781993	4.37193577740906214046
	146	1	6.58428018705000095423	10.98255738690659200074	4.36754627484237190060
	147	1	6.58428018705000095423	8.79219122540923336828	6.56668267124697191406
	148	1	4.38952012470000063615	10.98694689825227754909	6.56229316868028167420
	149	1	4.38952012470000152433	8.79658073675492069299	8.76142956508488168765
	150	1	6.58428018705000184241	10.99133640959796487380	8.75704006251819322415
	151	1	6.58428018705000184241	8.80097024810060624134	10.95617645892279234943
	152	1	4.38952012470000152433	10.99572592094365042215	10.95178695635610210957
	153	1	4.38952012470000152433	8.80535975944629356604	13.15092335276070301120
	154	1	6.58428018705000184241	11.00011543228933774685	13.14653385019401277134
	155	1	6.58428018705000184241	8.80974927079197911439	15.34567024659861367297
	156	1	4.38952012470000152433	11.00450494363502329520	15.34128074403192343311
	157	1	4.38952012470000152433	8.81413878213766643910	17.54041714043652433475
	158	1	6.58428018705000184241	11.00889445498071061991	17.53602763786983587124
	159	1	6.58428018705000184241	8.81852829348335198745	19.73516403427442966745
	160	1	4.38952012470000152433	11.01328396632639616826	19.73077453170774120395
	161	1	4.38952012470000063615	13.16853403705826330850	-0.02633701540013839992
	162	1	6.58428018705000095423	15.36328970990130748930	-0.03072651796682813324
	163	1	6.58428018705000095423	13.17292354840394885684	2.16840987843777188715
	164	1	4.38952012470000063615	15.36767922124699303765	2.16402037587108209138
	165	1	4.38952012470000063615	13.17731305974963618155	4.36315677227568254892
	166	1	6.58428018705000095423	15.37206873259268036236	4.35876726970899230906
	167	1	6.58428018705000095423	13.18170257109532172990	6.55790366611359232252
	168	1	4.38952012470000063615	15.37645824393836591071	6.55351416354690208266
	169	1	4.38952012470000152433	13.18609208244100905461	8.75265055995150298429
	170	1	6.58428018705000184241	15.38084775528405323541	8.74826105738481274443
	171	1	6.58428018705000184241	13.19048159378669460295	10.94739745378941186971
	172	1	4.38952012470000152433	15.38523726662973878376	10.94300795122272162985
	173	1	4.38952012470000152433	13.19487110513238192766	13.14214434762732253148
	174	1	6.58428018705000184241	15.38962677797542610847	13.13775484506063229162
	175	1	6.58428018705000184241	13.19926061647806747601	15.33689124146523319325
	176	1	4.38952012470000152433	15.39401628932111165682	15.33250173889854472975
	177	1	4.38952012470000152433	13.20365012782375480072	17.53163813530314385503
	178	1	6.58428018705000184241	15.39840580066679898152	17.52724863273645539152
	179	1	6.58428018705000184241	13.20803963916944034906	19.72638502914105274044
	180	1	4.38952012470000152433	15.40279531201248452987	19.72199552657436072423
	181	1	4.38952012470000063615	17.55804538274434989376	-0.03511602053351786656
	182	1	6.58428018705000095423	19.75280105558739407456	-0.03950552310020759988
	183	1	6.58428018705000095423	17.56243489409003544210	2.15963087330439229561
	184	1	4.38952012470000063615	19.75719056693307962291	2.15524137073770294393
	185	1	4.38952012470000063615	17.56682440543572099045	4.35437776714230295738
	186	1	6.58428018705000095423	19.76158007827876517126	4.34998826457561271752
	187	1	6.58428018705000095423	17.57121391678141009152	6.54912466098021273098
	188	1	4.38952012470000063615	19.76596958962445427233	6.54473515841352337929
	189	1	4.38952012470000152433	17.57560342812709563987	8.74387155481812428093
	190	1	6.58428018705000184241	19.77035910097013982067	8.73948205225143404107
	191	1	6.58428018705000184241	17.57999293947278118821	10.93861844865603316634
	192	1	4.38952012470000152433	19.77474861231582536902	10.93422894608934292648
	193	1	4.38952012470000152433	17.58438245081846673656	13.13336534249394382812
	194	1	6.58428018705000184241	19.77913812366151091737	13.12897583992725358826
	195	1	6.58428018705000184241	17.58877196216415583763	15.32811223633185448989
	196	1	4.38952012470000152433	19.78352763500720001844	15.32372273376516425003
	197	1	4.38952012470000152433	17.59316147350984138598	17.52285913016976337531
	198	1	6.58428018705000184241	19.78791714635288556678	17.51846962760307491180
	199	1	6.58428018705000184241	17.59755098485552693433	19.71760602400767226072
	200	1	4.38952012470000152433	19.79230665769857111513	19.71321652144098379722
	201	1	8.77904024939999949595	0.00000000000000000000	0.00000000000000000000
	202	1	10.97380031174999892585	2.19475567284304373672	-0.00438950256668973332
	203	1	10.97380031174999892585	0.00438951134568640790	2.19474689383791021768
	204	1	8.77904024939999949595	2.19914518418873017325	2.19035739127122042191
	205	1	8.77904024939999949595	0.00877902269137281581	4.38949378767582043537
	206	1	10.97380031174999892585	2.20353469553441660977	4.38510428510913108369
	207	1	10.97380031174999892585	0.01316853403705922458	6.58424068151373020896
	208	1	8.77904024939999949595	2.20792420688010304630	6.57985117894704085728
	209	1	8.77904024939999949595	0.01755804538274563162	8.77898757535164087074
	210	1	10.97380031174999892585	2.21231371822578948283	8.77459807278495240723
	211	1	10.97380031174999892585	0.02194755672843204039	10.97373446918954975615
	212	1	8.77904024939999949595	2.21670322957147591936	10.96934496662286129265
	213	1	8.77904024939999949595	0.02633706807411844916	13.16848136302746041792
	214	1	10.97380031174999892585	2.22109274091716235588	13.16409186046077195442
	215	1	10.97380031175000070220	0.03072657941980485793	15.36322825686537285605
	216	1	8.77904024940000127231	2.22548225226284879241	15.35883875429868261620
	217	1	8.77904024940000127231	0.03511609076549126324	17.55797515070328174147
	218	1	10.97380031175000070220	2.22987176360853478485	17.55358564813659327797
	219	1	10.97380031175000070220	0.03950560211117767201	19.75272204454119062689
	220	1	8.77904024940000127231	2.23426127495422122138	19.74833254197449861067
	221	1	8.77904024939999949595	4.38951134568608747344	-0.00877900513337946664
	222	1	10.97380031174999892585	6.58426701852913165425	-0.01316850770006919996
	223	1	10.97380031174999892585	4.39390085703177390997	2.18596788870453107023
	224	1	8.77904024939999949595	6.58865652987481809078	2.18157838613784127446
	225	1	8.77904024939999949595	4.39829036837746034649	4.38071478254244084383
	226	1	10.97380031174999892585	6.59304604122050452730	4.37632527997575149215
	227	1	10.97380031174999892585	4.40267987972314678302	6.57546167638035150560
	228	1	8.77904024939999949595	6.59743555256619096383	6.57107217381366126574
	229	1	8.77904024939999949595	4.40706939106883321955	8.77020857021826216737
	230	1	10.97380031174999892585	6.60182506391187740036	8.76581906765157192751
	231	1	10.97380031174999892585	4.41145890241451965608	10.96495546405617105279
	232	1	8.77904024939999949595	6.60621457525756383689	10.96056596148948081293
	233	1	8.77904024939999949595	4.41584841376020609260	13.15970235789408171456
	234	1	10.97380031174999892585	6.61060408660325027341	13.15531285532739147470
	235	1	10.97380031175000070220	4.42023792510589252913	15.35444925173199237634
	236	1	8.77904024940000127231	6.61499359794893670994	15.35005974916530213648
	237	1	8.77904024940000127231	4.42462743645157896566	17.54919614556990481447
	238	1	10.97380031175000070220	6.61938310929462314647	17.54480664300321279825
	239	1	10.97380031175000070220	4.42901694779726540219	19.74394303940781014717
	240	1	8.77904024940000127231	6.62377262064030958300	19.73955353684112168366
	241	1	8.77904024939999949595	8.77902269137217494688	-0.01755801026675893328
	242	1	10.97380031174999892585	10.97377836421521912769	-0.02194751283344866660
	243	1	10.97380031174999892585	8.78341220271786049523	2.17718888357115147869
	244	1	8.77904024939999949595	10.97816787556090467604	2.17279938100446168292
	245	1	8.77904024939999949595	8.78780171406354781993	4.37193577740906214046
	246	1	10.97380031174999892585	10.98255738690659200074	4.36754627484237190060
	247	1	10.97380031174999892585	8.79219122540923336828	6.56668267124697191406
	248	1	8.77904024939999949595	10.98694689825227754909	6.56229316868028167420
	249	1	8.77904024939999949595	8.79658073675492069299	8.76142956508488168765
	250	1	10.97380031174999892585	10.99133640959796487380	8.75704006251819322415
	251	1	10.97380031174999892585	8.80097024810060624134	10.95617645892279234943
	252	1	8.77904024939999949595	10.99572592094365042215	10.95178695635610210957
	253	1	8.77904024939999949595	8.80535975944629356604	13.15092335276070301120
	254	1	10.97380031174999892585	11.00011543228933774685	13.14653385019401277134
	255	1	10.97380031175000070220	8.80974927079197911439	15.34567024659861367297
	256	1	8.77904024940000127231	11.00450494363502329520	15.34128074403192343311
	257	1	8.77904024940000127231	8.81413878213766643910	17.54041714043652433475
	258	1	10.97380031175000070220	11.00889445498071061991	17.53602763786983587124
	259	1	10.97380031175000070220	8.81852829348335198745	19.73516403427442966745
	260	1	8.77904024940000127231	11.01328396632639616826	19.73077453170774120395
	261	1	8.77904024939999949595	13.16853403705826330850	-0.02633701540013839992
	262	1	10.97380031175000070220	15.36328970990130748930	-0.03072651796682813324
	263	1	10.97380031174999892585	13.17292354840394885684	2.16840987843777188715
	264	1	8.77904024940000127231	15.36767922124699303765	2.16402037587108209138
	265	1	8.77904024939999949595	13.17731305974963618155	4.36315677227568254892
	266	1	10.97380031175000070220	15.37206873259268036236	4.35876726970899230906
	267	1	10.97380031174999892585	13.18170257109532172990	6.55790366611359232252
	268	1	8.77904024940000127231	15.37645824393836591071	6.55351416354690208266
	269	1	8.77904024939999949595	13.18609208244100905461	8.75265055995150298429
	270	1	10.97380031175000070220	15.38084775528405323541	8.74826105738481274443
	271	1	10.97380031174999892585	13.19048159378669460295	10.94739745378941186971
	272	1	8.77904024940000127231	15.38523726662973878376	10.94300795122272162985
	273	1	8.77904024939999949595	13.19487110513238192766	13.14214434762732253148
	274	1	10.97380031175000070220	15.38962677797542610847	13.13775484506063229162
	275	1	10.97380031175000070220	13.19926061647806747601	15.33689124146523319325
	276	1	8.77904024940000304866	15.39401628932111165682	15.33250173889854472975
	277	1	8.77904024940000127231	13.20365012782375480072	17.53163813530314385503
	278	1	10.97380031175000247856	15.39840580066679898152	17.52724863273645539152
	279	1	10.97380031175000070220	13.20803963916944034906	19.72638502914105274044
	280	1	8.77904024940000304866	15.40279531201248452987	19.72199552657436072423
	281	1	8.77904024940000127231	17.55804538274434989376	-0.03511602053351786656
	282	1	10.97380031175000070220	19.75280105558739407456	-0.03950552310020759988
	283	1	10.97380031175000070220	17.56243489409003544210	2.15963087330439229561
	284	1	8.77904024940000127231	19.75719056693307962291	2.15524137073770294393
	285	1	8.77904024940000127231	17.56682440543572099045	4.35437776714230295738
	286	1	10.97380031175000070220	19.76158007827876517126	4.34998826457561271752
	287	1	10.97380031175000070220	17.57121391678141009152	6.54912466098021273098
	288	1	8.77904024940000127231	19.76596958962445427233	6.54473515841352337929
	289	1	8.77904024940000127231	17.57560342812709563987	8.74387155481812428093
	290	1	10.97380031175000070220	19.77035910097013982067	8.73948205225143404107
	291	1	10.97380031175000070220	17.57999293947278118821	10.93861844865603316634
	292	1	8.77904024940000127231	19.77474861231582536902	10.93422894608934292648
	293	1	8.77904024940000127231	17.58438245081846673656	13.13336534249394382812
	294	1	10.97380031175000070220	19.77913812366151091737	13.12897583992725358826
	295	1	10.97380031175000247856	17.58877196216415583763	15.32811223633185448989
	296	1	8.77904024940000304866	19.78352763500720001844	15.32372273376516425003
	297	1	8.77904024940000304866	17.59316147350984138598	17.52285913016976337531
	298	1	10.97380031175000247856	19.78791714635288556678	17.51846962760307491180
	299	1	10.97380031175000247856	17.59755098485552693433	19.71760602400767226072
	300	1	8.77904024940000304866	19.79230665769857111513	19.71321652144098379722
	301	1	13.16856037410000013210	0.00000000000000000000	0.00000000000000000000
	302	1	15.36332043644999956200	2.19475567284304373672	-0.00438950256668973332
	303	1	15.36332043644999956200	0.00438951134568640790	2.19474689383791021768
	304	1	13.16856037410000013210	2.19914518418873017325	2.19035739127122042191
	305	1	13.16856037410000013210	0.00877902269137281581	4.38949378767582043537
	306	1	15.36332043644999956200	2.20353469553441660977	4.38510428510913108369
	307	1	15.36332043644999956200	0.01316853403705922458	6.58424068151373020896
	308	1	13.16856037410000013210	2.20792420688010304630	6.57985117894704085728
	309	1	13.16856037410000013210	0.01755804538274563162	8.77898757535164087074
	310	1	15.36332043644999956200	2.21231371822578948283	8.77459807278495240723
	311	1	15.36332043644999956200	0.02194755672843204039	10.97373446918954975615
	312	1	13.16856037410000013210	2.21670322957147591936	10.96934496662286129265
	313	1	13.16856037410000013210	0.02633706807411844916	13.16848136302746041792
	314	1	15.36332043644999956200	2.22109274091716235588	13.16409186046077195442
	315	1	15.36332043645000133836	0.03072657941980485793	15.36322825686537285605
	316	1	13.16856037410000190846	2.22548225226284879241	15.35883875429868261620
	317	1	13.16856037410000190846	0.03511609076549126324	17.55797515070328174147
	318	1	15.36332043645000133836	2.22987176360853478485	17.55358564813659327797
	319	1	15.36332043645000133836	0.03950560211117767201	19.75272204454119062689
	320	1	13.16856037410000190846	2.23426127495422122138	19.74833254197449861067
	321	1	13.16856037410000013210	4.38951134568608747344	-0.00877900513337946664
	322	1	15.36332043644999956200	6.58426701852913165425	-0.01316850770006919996
	323	1	15.36332043644999956200	4.39390085703177390997	2.18596788870453107023
	324	1	13.16856037410000013210	6.58865652987481809078	2.18157838613784127446
	325	1	13.16856037410000013210	4.39829036837746034649	4.38071478254244084383
	326	1	15.36332043644999956200	6.59304604122050452730	4.37632527997575149215
	327	1	15.36332043644999956200	4.40267987972314678302	6.57546167638035150560
	328	1	13.16856037410000013210	6.59743555256619096383	6.57107217381366126574
	329	1	13.16856037410000013210	4.40706939106883321955	8.77020857021826216737
	330	1	15.36332043644999956200	6.60182506391187740036	8.76581906765157192751
	331	1	15.36332043644999956200	4.41145890241451965608	10.96495546405617105279
	332	1	13.16856037410000013210	6.60621457525756383689	10.96056596148948081293
	333	1	13.16856037410000013210	4.41584841376020609260	13.15970235789408171456
	334	1	15.36332043644999956200	6.61060408660325027341	13.15531285532739147470
	335	1	15.36332043645000133836	4.42023792510589252913	15.35444925173199237634
	336	1	13.16856037410000190846	6.61499359794893670994	15.35005974916530213648
	337	1	13.16856037410000190846	4.42462743645157896566	17.54919614556990481447
	338	1	15.36332043645000133836	6.61938310929462314647	17.54480664300321279825
	339	1	15.36332043645000133836	4.42901694779726540219	19.74394303940781014717
	340	1	13.16856037410000190846	6.62377262064030958300	19.73955353684112168366
	341	1	13.16856037410000013210	8.77902269137217494688	-0.01755801026675893328
	342	1	15.36332043644999956200	10.97377836421521912769	-0.02194751283344866660
	343	1	15.36332043644999956200	8.78341220271786049523	2.17718888357115147869
	344	1	13.16856037410000013210	10.97816787556090467604	2.17279938100446168292
	345	1	13.16856037410000013210	8.78780171406354781993	4.37193577740906214046
	346	1	15.36332043644999956200	10.98255738690659200074	4.36754627484237190060
	347	1	15.36332043644999956200	8.79219122540923336828	6.56668267124697191406
	348	1	13.16856037410000013210	10.98694689825227754909	6.56229316868028167420
	349	1	13.16856037410000013210	8.79658073675492069299	8.76142956508488168765
	350	1	15.36332043644999956200	10.99133640959796487380	8.75704006251819322415
	351	1	15.36332043644999956200	8.80097024810060624134	10.95617645892279234943
	352	1	13.16856037410000013210	10.99572592094365042215	10.95178695635610210957
	353	1	13.16856037410000013210	8.80535975944629356604	13.15092335276070301120
	354	1	15.36332043644999956200	11.00011543228933774685	13.14653385019401277134
	355	1	15.36332043645000133836	8.80974927079197911439	15.34567024659861367297
	356	1	13.16856037410000190846	11.00450494363502329520	15.34128074403192343311
	357	1	13.16856037410000190846	8.81413878213766643910	17.54041714043652433475
	358	1	15.36332043645000133836	11.00889445498071061991	17.53602763786983587124
	359	1	15.36332043645000133836	8.81852829348335198745	19.73516403427442966745
	360	1	13.16856037410000190846	11.01328396632639616826	19.73077453170774120395
	361	1	13.16856037410000013210	13.16853403705826330850	-0.02633701540013839992
	362	1	15.36332043645000133836	15.36328970990130748930	-0.03072651796682813324
	363	1	15.36332043644999956200	13.17292354840394885684	2.16840987843777188715
	364	1	13.16856037410000190846	15.36767922124699303765	2.16402037587108209138
	365	1	13.16856037410000013210	13.17731305974963618155	4.36315677227568254892
	366	1	15.36332043645000133836	15.37206873259268036236	4.35876726970899230906
	367	1	15.36332043644999956200	13.18170257109532172990	6.55790366611359232252
	368	1	13.16856037410000190846	15.37645824393836591071	6.55351416354690208266
	369	1	13.16856037410000013210	13.18609208244100905461	8.75265055995150298429
	370	1	15.36332043645000133836	15.38084775528405323541	8.74826105738481274443
	371	1	15.36332043644999956200	13.19048159378669460295	10.94739745378941186971
	372	1	13.16856037410000190846	15.38523726662973878376	10.94300795122272162985
	373	1	13.16856037410000013210	13.19487110513238192766	13.14214434762732253148
	374	1	15.36332043645000133836	15.38962677797542610847	13.13775484506063229162
	375	1	15.36332043645000133836	13.19926061647806747601	15.33689124146523319325
	376	1	13.16856037410000368482	15.39401628932111165682	15.33250173889854472975
	377	1	13.16856037410000190846	13.20365012782375480072	17.53163813530314385503
	378	1	15.36332043645000311471	15.39840580066679898152	17.52724863273645539152
	379	1	15.36332043645000133836	13.20803963916944034906	19.72638502914105274044
	380	1	13.16856037410000368482	15.40279531201248452987	19.72199552657436072423
	381	1	13.16856037410000190846	17.55804538274434989376	-0.03511602053351786656
	382	1	15.36332043645000133836	19.75280105558739407456	-0.03950552310020759988
	383	1	15.36332043645000133836	17.56243489409003544210	2.15963087330439229561
	384	1	13.16856037410000190846	19.75719056693307962291	2.15524137073770294393
	385	1	13.16856037410000190846	17.56682440543572099045	4.35437776714230295738