ITEM: TIMESTEP
0
ITEM: NUMBER OF ATOMS
500
ITEM: BOX BOUNDS xy xz yz pp pp pp
0 21.9476 1.34391e-15
0 22.0354 1.34391e-15
0 21.9475 0.0877902
ITEM: ATOMS id type x y z 
1 1 0 0 0 
2 1 2.19476 2.28255 21.9431 
3 1 2.19476 21.952 2.19475 
4 1 2.68245e-16 2.19915 2.19036 
5 1 1.61215e-15 21.9564 4.38949 
6 1 2.19476 2.20353 4.3851 
7 1 2.19476 21.9608 6.58424 
8 1 5.3649e-16 2.20792 6.57985 
9 1 1.8804e-15 21.9652 8.77899 
10 1 2.19476 2.21231 8.7746 
11 1 2.19476 21.9696 10.9737 
12 1 8.04734e-16 2.2167 10.9693 
13 1 2.14864e-15 21.974 13.1685 
14 1 2.19476 2.22109 13.1641 
15 1 2.19476 21.9784 15.3632 
16 1 1.07298e-15 2.22548 15.3588 
17 1 2.41689e-15 21.9828 17.558 
18 1 2.19476 2.22987 17.5536 
19 1 2.19476 21.9872 19.7527 
20 1 1.34122e-15 2.23426 19.7483 
21 1 1.61216e-15 4.4773 21.9387 
22 1 2.19476 6.67206 21.9343 
23 1 2.19476 4.3939 2.18597 
24 1 5.3649e-16 6.58866 2.18158 
25 1 5.3649e-16 4.39829 4.38071 
26 1 2.19476 6.59305 4.37633 
27 1 2.19476 4.40268 6.57546 
28 1 8.04735e-16 6.59744 6.57107 
29 1 8.04734e-16 4.40707 8.77021 
30 1 2.19476 6.60183 8.76582 
31 1 2.19476 4.41146 10.965 
32 1 1.07298e-15 6.60621 10.9606 
33 1 1.07298e-15 4.41585 13.1597 
34 1 2.19476 6.6106 13.1553 
35 1 2.19476 4.42024 15.3544 
36 1 1.34122e-15 6.61499 15.3501 
37 1 1.34122e-15 4.42463 17.5492 
38 1 2.19476 6.61938 17.5448 
39 1 2.19476 4.42902 19.7439 
40 1 1.60947e-15 6.62377 19.7396 
41 1 1.8804e-15 8.86681 21.9299 
42 1 2.19476 11.0616 21.9255 
43 1 2.19476 8.78341 2.17719 
44 1 8.04736e-16 10.9782 2.1728 
45 1 8.04735e-16 8.7878 4.37194 
46 1 2.19476 10.9826 4.36755 
47 1 2.19476 8.79219 6.56668 
48 1 1.07298e-15 10.9869 6.56229 
49 1 1.07298e-15 8.79658 8.76143 
50 1 2.19476 10.9913 8.75704 
51 1 2.19476 8.80097 10.9562 
52 1 1.34122e-15 10.9957 10.9518 
53 1 1.34122e-15 8.80536 13.1509 
54 1 2.19476 11.0001 13.1465 
55 1 2.19476 8.80975 15.3457 
56 1 1.60947e-15 11.0045 15.3413 
57 1 1.60947e-15 8.81414 17.5404 
58 1 2.19476 11.0089 17.536 
59 1 2.19476 8.81853 19.7352 
60 1 1.87771e-15 11.0133 19.7308 
61 1 2.14865e-15 13.2563 21.9211 
62 1 2.19476 15.4511 21.9167 
63 1 2.19476 13.1729 2.16841 
64 1 1.07298e-15 15.3677 2.16402 
65 1 1.07298e-15 13.1773 4.36316 
66 1 2.19476 15.3721 4.35877 
67 1 2.19476 13.1817 6.5579 
68 1 1.34123e-15 15.3765 6.55351 
69 1 1.34123e-15 13.1861 8.75265 
70 1 2.19476 15.3808 8.74826 
71 1 2.19476 13.1905 10.9474 
72 1 1.60947e-15 15.3852 10.943 
73 1 1.60947e-15 13.1949 13.1421 
74 1 2.19476 15.3896 13.1378 
75 1 2.19476 13.1993 15.3369 
76 1 1.87771e-15 15.394 15.3325 
77 1 1.87771e-15 13.2037 17.5316 
78 1 2.19476 15.3984 17.5272 
79 1 2.19476 13.208 19.7264 
80 1 2.14596e-15 15.4028 19.722 
81 1 2.41689e-15 17.6458 21.9124 
82 1 2.19476 19.8406 21.908 
83 1 2.19476 17.5624 2.15963 
84 1 1.34123e-15 19.7572 2.15524 
85 1 1.34123e-15 17.5668 4.35438 
86 1 2.19476 19.7616 4.34999 
87 1 2.19476 17.5712 6.54912 
88 1 1.60947e-15 19.766 6.54474 
89 1 1.60947e-15 17.5756 8.74387 
90 1 2.19476 19.7704 8.73948 
91 1 2.19476 17.58 10.9386 
92 1 1.87772e-15 19.7747 10.9342 
93 1 1.87772e-15 17.5844 13.1334 
94 1 2.19476 19.7791 13.129 
95 1 2.19476 17.5888 15.3281 
96 1 2.14596e-15 19.7835 15.3237 
97 1 2.14596e-15 17.5932 17.5229 
98 1 2.19476 19.7879 17.5185 
99 1 2.19476 17.5976 19.7176 
100 1 2.4142e-15 19.7923 19.7132 
101 1 4.38952 0 0 
102 1 6.58428 2.28255 21.9431 
103 1 6.58428 21.952 2.19475 
104 1 4.38952 2.19915 2.19036 
105 1 4.38952 21.9564 4.38949 
106 1 6.58428 2.20353 4.3851 
107 1 6.58428 21.9608 6.58424 
108 1 4.38952 2.20792 6.57985 
109 1 4.38952 21.9652 8.77899 
110 1 6.58428 2.21231 8.7746 
111 1 6.58428 21.9696 10.9737 
112 1 4.38952 2.2167 10.9693 
113 1 4.38952 21.974 13.1685 
114 1 6.58428 2.22109 13.1641 
115 1 6.58428 21.9784 15.3632 
116 1 4.38952 2.22548 15.3588 
117 1 4.38952 21.9828 17.558 
118 1 6.58428 2.22987 17.5536 
119 1 6.58428 21.9872 19.7527 
120 1 4.38952 2.23426 19.7483 
121 1 4.38952 4.4773 21.9387 
122 1 6.58428 6.67206 21.9343 
123 1 6.58428 4.3939 2.18597 
124 1 4.38952 6.58866 2.18158 
125 1 4.38952 4.39829 4.38071 
126 1 6.58428 6.59305 4.37633 
127 1 6.58428 4.40268 6.57546 
128 1 4.38952 6.59744 6.57107 
129 1 4.38952 4.40707 8.77021 
130 1 6.58428 6.60183 8.76582 
131 1 6.58428 4.41146 10.965 
132 1 4.38952 6.60621 10.9606 
133 1 4.38952 4.41585 13.1597 
134 1 6.58428 6.6106 13.1553 
135 1 6.58428 4.42024 15.3544 
136 1 4.38952 6.61499 15.3501 
137 1 4.38952 4.42463 17.5492 
138 1 6.58428 6.61938 17.5448 
139 1 6.58428 4.42902 19.7439 
140 1 4.38952 6.62377 19.7396 
141 1 4.38952 8.86681 21.9299 
142 1 6.58428 11.0616 21.9255 
143 1 6.58428 8.78341 2.17719 
144 1 4.38952 10.9782 2.1728 
145 1 4.38952 8.7878 4.37194 
146 1 6.58428 10.9826 4.36755 
147 1 6.58428 8.79219 6.56668 
148 1 4.38952 10.9869 6.56229 
149 1 4.38952 8.79658 8.76143 
150 1 6.58428 10.9913 8.75704 
151 1 6.58428 8.80097 10.9562 
152 1 4.38952 10.9957 10.9518 
153 1 4.38952 8.80536 13.1509 
154 1 6.58428 11.0001 13.1465 
155 1 6.58428 8.80975 15.3457 
156 1 4.38952 11.0045 15.3413 
157 1 4.38952 8.81414 17.5404 
158 1 6.58428 11.0089 17.536 
159 1 6.58428 8.81853 19.7352 
160 1 4.38952 11.0133 19.7308 
161 1 4.38952 13.2563 21.9211 
162 1 6.58428 15.4511 21.9167 
163 1 6.58428 13.1729 2.16841 
164 1 4.38952 15.3677 2.16402 
165 1 4.38952 13.1773 4.36316 
166 1 6.58428 15.3721 4.35877 
167 1 6.58428 13.1817 6.5579 
168 1 4.38952 15.3765 6.55351 
169 1 4.38952 13.1861 8.75265 
170 1 6.58428 15.3808 8.74826 
171 1 6.58428 13.1905 10.9474 
172 1 4.38952 15.3852 10.943 
173 1 4.38952 13.1949 13.1421 
174 1 6.58428 15.3896 13.1378 
175 1 6.58428 13.1993 15.3369 
176 1 4.38952 15.394 15.3325 
177 1 4.38952 13.2037 17.5316 
178 1 6.58428 15.3984 17.5272 
179 1 6.58428 13.208 19.7264 
180 1 4.38952 15.4028 19.722 
181 1 4.38952 17.6458 21.9124 
182 1 6.58428 19.8406 21.908 
183 1 6.58428 17.5624 2.15963 
184 1 4.38952 19.7572 2.15524 
185 1 4.38952 17.5668 4.35438 
186 1 6.58428 19.7616 4.34999 
187 1 6.58428 17.5712 6.54912 
188 1 4.38952 19.766 6.54474 
189 1 4.38952 17.5756 8.74387 
190 1 6.58428 19.7704 8.73948 
191 1 6.58428 17.58 10.9386 
192 1 4.38952 19.7747 10.9342 
193 1 4.38952 17.5844 13.1334 
194 1 6.58428 19.7791 13.129 
195 1 6.58428 17.5888 15.3281 
196 1 4.38952 19.7835 15.3237 
197 1 4.38952 17.5932 17.5229 
198 1 6.58428 19.7879 17.5185 
199 1 6.58428 17.5976 19.7176 
200 1 4.38952 19.7923 19.7132 
201 1 8.77904 0 0 
202 1 10.9738 2.28255 21.9431 
203 1 10.9738 21.952 2.19475 
204 1 8.77904 2.19915 2.19036 
205 1 8.77904 21.9564 4.38949 
206 1 10.9738 2.20353 4.3851 
207 1 10.9738 21.9608 6.58424 
208 1 8.77904 2.20792 6.57985 
209 1 8.77904 21.9652 8.77899 
210 1 10.9738 2.21231 8.7746 
211 1 10.9738 21.9696 10.9737 
212 1 8.77904 2.2167 10.9693 
213 1 8.77904 21.974 13.1685 
214 1 10.9738 2.22109 13.1641 
215 1 10.9738 21.9784 15.3632 
216 1 8.77904 2.22548 15.3588 
217 1 8.77904 21.9828 17.558 
218 1 10.9738 2.22987 17.5536 
219 1 10.9738 21.9872 19.7527 
220 1 8.77904 2.23426 19.7483 
221 1 8.77904 4.4773 21.9387 
222 1 10.9738 6.67206 21.9343 
223 1 10.9738 4.3939 2.18597 
224 1 8.77904 6.58866 2.18158 
225 1 8.77904 4.39829 4.38071 
226 1 10.9738 6.59305 4.37633 
227 1 10.9738 4.40268 6.57546 
228 1 8.77904 6.59744 6.57107 
229 1 8.77904 4.40707 8.77021 
230 1 10.9738 6.60183 8.76582 
231 1 10.9738 4.41146 10.965 
232 1 8.77904 6.60621 10.9606 
233 1 8.77904 4.41585 13.1597 
234 1 10.9738 6.6106 13.1553 
235 1 10.9738 4.42024 15.3544 
236 1 8.77904 6.61499 15.3501 
237 1 8.77904 4.42463 17.5492 
238 1 10.9738 6.61938 17.5448 
239 1 10.9738 4.42902 19.7439 
240 1 8.77904 6.62377 19.7396 
241 1 8.77904 8.86681 21.9299 
242 1 10.9738 11.0616 21.9255 
243 1 10.9738 8.78341 2.17719 
244 1 8.77904 10.9782 2.1728 
245 1 8.77904 8.7878 4.37194 
246 1 10.9738 10.9826 4.36755 
247 1 10.9738 8.79219 6.56668 
248 1 8.77904 10.9869 6.56229 
249 1 8.77904 8.79658 8.76143 
250 1 10.9738 10.9913 8.75704 
251 1 10.9738 8.80097 10.9562 
252 1 8.77904 10.9957 10.9518 
253 1 8.77904 8.80536 13.1509 
254 1 10.9738 11.0001 13.1465 
255 1 10.9738 8.80975 15.3457 
256 1 8.77904 11.0045 15.3413 
257 1 8.77904 8.81414 17.5404 
258 1 10.9738 11.0089 17.536 
259 1 10.9738 8.81853 19.7352 
260 1 8.77904 11.0133 19.7308 
261 1 8.77904 13.2563 21.9211 
262 1 10.9738 15.4511 21.9167 
263 1 10.9738 13.1729 2.16841 
264 1 8.77904 15.3677 2.16402 
265 1 8.77904 13.1773 4.36316 
266 1 10.9738 15.3721 4.35877 
267 1 10.9738 13.1817 6.5579 
268 1 8.77904 15.3765 6.55351 
269 1 8.77904 13.1861 8.75265 
270 1 10.9738 15.3808 8.74826 
271 1 10.9738 13.1905 10.9474 
272 1 8.77904 15.3852 10.943 
273 1 8.77904 13.1949 13.1421 
274 1 10.9738 15.3896 13.1378 
275 1 10.9738 13.1993 15.3369 
276 1 8.77904 15.394 15.3325 
277 1 8.77904 13.2037 17.5316 
278 1 10.9738 15.3984 17.5272 
279 1 10.9738 13.208 19.7264 
280 1 8.77904 15.4028 19.722 
281 1 8.77904 17.6458 21.9124 
282 1 10.9738 19.8406 21.908 
283 1 10.9738 17.5624 2.15963 
284 1 8.77904 19.7572 2.15524 
285 1 8.77904 17.5668 4.35438 
286 1 10.9738 19.7616 4.34999 
287 1 10.9738 17.5712 6.54912 
288 1 8.77904 19.766 6.54474 
289 1 8.77904 17.5756 8.74387 
290 1 10.9738 19.7704 8.73948 
291 1 10.9738 17.58 10.9386 
292 1 8.77904 19.7747 10.9342 
293 1 8.77904 17.5844 13.1334 
294 1 10.9738 19.7791 13.129 
295 1 10.9738 17.5888 15.3281 
296 1 8.77904 19.7835 15.3237 
297 1 8.77904 17.5932 17.5229 
298 1 10.9738 19.7879 17.5185 
299 1 10.9738 17.5976 19.7176 
300 1 8.77904 19.7923 19.7132 
301 1 13.1686 0 0 
302 1 15.3633 2.28255 21.9431 
303 1 15.3633 21.952 2.19475 
304 1 13.1686 2.19915 2.19036 
305 1 13.1686 21.9564 4.38949 
306 1 15.3633 2.20353 4.3851 
307 1 15.3633 21.9608 6.58424 
308 1 13.1686 2.20792 6.57985 
309 1 13.1686 21.9652 8.77899 
310 1 15.3633 2.21231 8.7746 
311 1 15.3633 21.9696 10.9737 
312 1 13.1686 2.2167 10.9693 
313 1 13.1686 21.974 13.1685 
314 1 15.3633 2.22109 13.1641 
315 1 15.3633 21.9784 15.3632 
316 1 13.1686 2.22548 15.3588 
317 1 13.1686 21.9828 17.558 
318 1 15.3633 2.22987 17.5536 
319 1 15.3633 21.9872 19.7527 
320 1 13.1686 2.23426 19.7483 
321 1 13.1686 4.4773 21.9387 
322 1 15.3633 6.67206 21.9343 
323 1 15.3633 4.3939 2.18597 
324 1 13.1686 6.58866 2.18158 
325 1 13.1686 4.39829 4.38071 
326 1 15.3633 6.59305 4.37633 
327 1 15.3633 4.40268 6.57546 
328 1 13.1686 6.59744 6.57107 
329 1 13.1686 4.40707 8.77021 
330 1 15.3633 6.60183 8.76582 
331 1 15.3633 4.41146 10.965 
332 1 13.1686 6.60621 10.9606 
333 1 13.1686 4.41585 13.1597 
334 1 15.3633 6.6106 13.1553 
335 1 15.3633 4.42024 15.3544 
336 1 13.1686 6.61499 15.3501 
337 1 13.1686 4.42463 17.5492 
338 1 15.3633 6.61938 17.5448 
339 1 15.3633 4.42902 19.7439 
340 1 13.1686 6.62377 19.7396 
341 1 13.1686 8.86681 21.9299 
342 1 15.3633 11.0616 21.9255 
343 1 15.3633 8.78341 2.17719 
344 1 13.1686 10.9782 2.1728 
345 1 13.1686 8.7878 4.37194 
346 1 15.3633 10.9826 4.36755 
347 1 15.3633 8.79219 6.56668 
348 1 13.1686 10.9869 6.56229 
349 1 13.1686 8.79658 8.76143 
350 1 15.3633 10.9913 8.75704 
351 1 15.3633 8.80097 10.9562 
352 1 13.1686 10.9957 10.9518 
353 1 13.1686 8.80536 13.1509 
354 1 15.3633 11.0001 13.1465 
355 1 15.3633 8.80975 15.3457 
356 1 13.1686 11.0045 15.3413 
357 1 13.1686 8.81414 17.5404 
358 1 15.3633 11.0089 17.536 
359 1 15.3633 8.81853 19.7352 
360 1 13.1686 11.0133 19.7308 
361 1 13.1686 13.2563 21.9211 
362 1 15.3633 15.4511 21.9167 
363 1 15.3633 13.1729 2.16841 
364 1 13.1686 15.3677 2.16402 
365 1 13.1686 13.1773 4.36316 
366 1 15.3633 15.3721 4.35877 
367 1 15.3633 13.1817 6.5579 
368 1 13.1686 15.3765 6.55351 
369 1 13.1686 13.1861 8.75265 
370 1 15.3633 15.3808 8.74826 
371 1 15.3633 13.1905 10.9474 
372 1 13.1686 15.3852 10.943 
373 1 13.1686 13.1949 13.1421 
374 1 15.3633 15.3896 13.1378 
375 1 15.3633 13.1993 15.3369 
376 1 13.1686 15.394 15.3325 
377 1 13.1686 13.2037 17.5316 
378 1 15.3633 15.3984 17.5272 
379 1 15.3633 13.208 19.7264 
380 1 13.1686 15.4028 19.722 
381 1 13.1686 17.6458 21.9124 
382 1 15.3633 19.8406 21.908 
383 1 15.3633 17.5624 2.15963 
384 1 13.1686 19.7572 2.15524 
385 1 13.1686 17.5668 4.35438 
386 1 15.3633 19.7616 4.34999 
387 1 15.3633 17.5712 6.54912 
388 1 13.1686 19.766 6.54474 
389 1 13.1686 17.5756 8.74387 
390 1 15.3633 19.7704 8.73948 
391 1 15.3633 17.58 10.9386 
392 1 13.1686 19.7747 10.9342 
393 1 13.1686 17.5844 13.1334 
394 1 15.3633 19.7791 13.129 
395 1 15.3633 17.5888 15.3281 
396 1 13.1686 19.7835 15.3237 
397 1 13.1686 17.5932 17.5229 
398 1 15.3633 19.7879 17.5185 
399 1 15.3633 17.5976 19.7176 
400 1 13.1686 19.7923 19.7132 
401 1 17.5581 0 0 
402 1 19.7528 2.28255 21.9431 
403 1 19.7528 21.952 2.19475 
404 1 17.5581 2.19915 2.19036 
405 1 17.5581 21.9564 4.38949 
406 1 19.7528 2.20353 4.3851 
407 1 19.7528 21.9608 6.58424 
408 1 17.5581 2.20792 6.57985 
409 1 17.5581 21.9652 8.77899 
410 1 19.7528 2.21231 8.7746 
411 1 19.7528 21.9696 10.9737 
412 1 17.5581 2.2167 10.9693 
413 1 17.5581 21.974 13.1685 
414 1 19.7528 2.22109 13.1641 
415 1 19.7528 21.9784 15.3632 
416 1 17.5581 2.22548 15.3588 
417 1 17.5581 21.9828 17.558 
418 1 19.7528 2.22987 17.5536 
419 1 19.7528 21.9872 19.7527 
420 1 17.5581 2.23426 19.7483 
421 1 17.5581 4.4773 21.9387 
422 1 19.7528 6.67206 21.9343 
423 1 19.7528 4.3939 2.18597 
424 1 17.5581 6.58866 2.18158 
425 1 17.5581 4.39829 4.38071 
426 1 19.7528 6.59305 4.37633 
427 1 19.7528 4.40268 6.57546 
428 1 17.5581 6.59744 6.57107 
429 1 17.5581 4.40707 8.77021 
430 1 19.7528 6.60183 8.76582 
431 1 19.7528 4.41146 10.965 
432 1 17.5581 6.60621 10.9606 
433 1 17.5581 4.41585 13.1597 
434 1 19.7528 6.6106 13.1553 
435 1 19.7528 4.42024 15.3544 
436 1 17.5581 6.61499 15.3501 
437 1 17.5581 4.42463 17.5492 
438 1 19.7528 6.61938 17.5448 
439 1 19.7528 4.42902 19.7439 
440 1 17.5581 6.62377 19.7396 
441 1 17.5581 8.86681 21.9299 
442 1 19.7528 11.0616 21.9255 
443 1 19.7528 8.78341 2.17719 
444 1 17.5581 10.9782 2.1728 
445 1 17.5581 8.7878 4.37194 
446 1 19.7528 10.9826 4.36755 
447 1 19.7528 8.79219 6.56668 
448 1 17.5581 10.9869 6.56229 
449 1 17.5581 8.79658 8.76143 
450 1 19.7528 10.9913 8.75704 
451 1 19.7528 8.80097 10.9562 
452 1 17.5581 10.9957 10.9518 
453 1 17.5581 8.80536 13.1509 
454 1 19.7528 11.0001 13.1465 
455 1 19.7528 8.80975 15.3457 
456 1 17.5581 11.0045 15.3413 
457 1 17.5581 8.81414 17.5404 
458 1 19.7528 11.0089 17.536 
459 1 19.7528 8.81853 19.7352 
460 1 17.5581 11.0133 19.7308 
461 1 17.5581 13.2563 21.9211 
462 1 19.7528 15.4511 21.9167 
463 1 19.7528 13.1729 2.16841 
464 1 17.5581 15.3677 2.16402 
465 1 17.5581 13.1773 4.36316 
466 1 19.7528 15.3721 4.35877 
467 1 19.7528 13.1817 6.5579 
468 1 17.5581 15.3765 6.55351 
469 1 17.5581 13.1861 8.75265 
470 1 19.7528 15.3808 8.74826 
471 1 19.7528 13.1905 10.9474 
472 1 17.5581 15.3852 10.943 
473 1 17.5581 13.1949 13.1421 
474 1 19.7528 15.3896 13.1378 
475 1 19.7528 13.1993 15.3369 
476 1 17.5581 15.394 15.3325 
477 1 17.5581 13.2037 17.5316 
478 1 19.7528 15.3984 17.5272 
479 1 19.7528 13.208 19.7264 
480 1 17.5581 15.4028 19.722 
481 1 17.5581 17.6458 21.9124 
482 1 19.7528 19.8406 21.908 
483 1 19.7528 17.5624 2.15963 
484 1 17.5581 19.7572 2.15524 
485 1 17.5581 17.5668 4.35438 
486 1 19.7528 19.7616 4.34999 
487 1 19.7528 17.5712 6.54912 
488 1 17.5581 19.766 6.54474 
489 1 17.5581 17.5756 8.74387 
490 1 19.7528 19.7704 8.73948 
491 1 19.7528 17.58 10.9386 
492 1 17.5581 19.7747 10.9342 
493 1 17.5581 17.5844 13.1334 
494 1 19.7528 19.7791 13.129 
495 1 19.7528 17.5888 15.3281 
496 1 17.5581 19.7835 15.3237 
497 1 17.5581 17.5932 17.5229 
498 1 19.7528 19.7879 17.5185 
499 1 19.7528 17.5976 19.7176 
500 1 17.5581 19.7923 19.7132 
ITEM: TIMESTEP
1
ITEM: NUMBER OF ATOMS
500
ITEM: BOX BOUNDS xy xz yz pp pp pp
0 21.9476 1.34391e-15
0 22.0354 1.34391e-15
0 21.9475 0.0877902
ITEM: ATOMS id type x y z 
1 1 -3.95712e-15 -0.00856056 -0.00862708 
2 1 2.19476 2.27173 21.9444 
3 1 2.19476 21.9534 2.18393 
4 1 -2.06425e-15 2.19958 2.1908 
5 1 5.63297e-16 21.9572 4.37898 
6 1 2.19476 2.20335 4.38579 
7 1 2.19476 21.9616 6.57371 
8 1 2.08576e-15 2.20777 6.58052 
9 1 7.64539e-16 21.966 8.76846 
10 1 2.19476 2.21216 8.77527 
11 1 2.19476 21.9704 10.9632 
12 1 9.64975e-16 2.21655 10.97 
13 1 8.64081e-16 21.9748 13.158 
14 1 2.19476 2.22094 13.1648 
15 1 2.19476 21.9792 15.3527 
16 1 -8.63616e-17 2.22537 15.3595 
17 1 8.8578e-16 21.9828 17.5478 
18 1 2.19476 2.22895 17.5545 
19 1 2.19476 21.9998 19.7401 
20 1 4.42311e-16 2.24447 19.7484 
21 1 1.33221e-15 4.46679 21.9394 
22 1 2.19476 6.66154 21.935 
23 1 2.19476 4.39458 2.18579 
24 1 3.70933e-16 6.58932 2.18143 
25 1 3.65807e-15 4.39827 4.38069 
26 1 2.19476 6.59301 4.37634 
27 1 2.19476 4.40269 6.57543 
28 1 2.4912e-15 6.59743 6.57107 
29 1 1.48805e-15 4.40708 8.77017 
30 1 2.19476 6.60182 8.76582 
31 1 2.19476 4.41147 10.9649 
32 1 3.14883e-15 6.60621 10.9606 
33 1 1.9926e-15 4.41586 13.1597 
34 1 2.19476 6.6106 13.1553 
35 1 2.19476 4.42028 15.3544 
36 1 2.59119e-15 6.61503 15.35 
37 1 2.36309e-15 4.42397 17.5493 
38 1 2.19476 6.61871 17.5449 
39 1 2.19476 4.43955 19.7432 
40 1 1.65039e-15 6.63429 19.7388 
41 1 1.64753e-16 8.85629 21.9306 
42 1 2.19476 11.051 21.9263 
43 1 2.19476 8.78408 2.17705 
44 1 9.89746e-17 10.9788 2.17266 
45 1 1.7025e-15 8.78777 4.37195 
46 1 2.19476 10.9825 4.36756 
47 1 2.19476 8.79219 6.56668 
48 1 2.05383e-15 10.9869 6.56229 
49 1 2.38096e-15 8.79658 8.76143 
50 1 2.19476 10.9913 8.75704 
51 1 2.19476 8.80097 10.9562 
52 1 3.18116e-15 10.9957 10.9518 
53 1 2.65538e-15 8.80536 13.1509 
54 1 2.19476 11.0001 13.1465 
55 1 2.19476 8.80978 15.3457 
56 1 1.68107e-15 11.0045 15.3413 
57 1 2.19535e-15 8.81347 17.5406 
58 1 2.19476 11.0082 17.5362 
59 1 2.19476 8.82905 19.7344 
60 1 2.09806e-15 11.0238 19.73 
61 1 1.25401e-15 13.2458 21.9219 
62 1 2.19476 15.4405 21.9175 
63 1 2.19476 13.1736 2.16827 
64 1 5.85795e-16 15.3683 2.16391 
65 1 1.88212e-15 13.1773 4.36317 
66 1 2.19476 15.372 4.35881 
67 1 2.19476 13.1817 6.5579 
68 1 2.88124e-15 15.3764 6.55355 
69 1 1.58311e-15 13.1861 8.75265 
70 1 2.19476 15.3808 8.7483 
71 1 2.19476 13.1905 10.9474 
72 1 1.53985e-15 15.3852 10.943 
73 1 1.73787e-15 13.1949 13.1421 
74 1 2.19476 15.3896 13.1378 
75 1 2.19476 13.1993 15.3369 
76 1 1.76326e-15 15.394 15.3325 
77 1 2.3858e-15 13.203 17.5318 
78 1 2.19476 15.3977 17.5274 
79 1 2.19476 13.2186 19.7257 
80 1 2.35287e-15 15.4133 19.7213 
81 1 5.9716e-16 17.6356 21.9123 
82 1 2.19476 19.8279 21.9206 
83 1 2.19476 17.5634 2.15872 
84 1 -3.72276e-17 19.7572 2.16546 
85 1 4.55897e-15 17.5669 4.35372 
86 1 2.19476 19.7608 4.36053 
87 1 2.19476 17.5714 6.54845 
88 1 1.21309e-15 19.7652 6.55526 
89 1 1.69821e-15 17.5758 8.7432 
90 1 2.19476 19.7696 8.75001 
91 1 2.19476 17.5801 10.9379 
92 1 2.4196e-15 19.774 10.9448 
93 1 2.19811e-15 17.5845 13.1327 
94 1 2.19476 19.7783 13.1395 
95 1 2.19476 17.589 15.3274 
96 1 6.4434e-16 19.7828 15.3342 
97 1 2.20565e-15 17.5927 17.5224 
98 1 2.19476 19.7866 17.5293 
99 1 2.19476 17.6084 19.7163 
100 1 1.7511e-16 19.8009 19.7218 
101 1 4.38952 -0.00856056 -0.00862708 
102 1 6.58428 2.27173 21.9444 
103 1 6.58428 21.9534 2.18393 
104 1 4.38952 2.19958 2.1908 
105 1 4.38952 21.9572 4.37898 
106 1 6.58428 2.20335 4.38579 
107 1 6.58428 21.9616 6.57371 
108 1 4.38952 2.20777 6.58052 
109 1 4.38952 21.966 8.76846 
110 1 6.58428 2.21216 8.77527 
111 1 6.58428 21.9704 10.9632 
112 1 4.38952 2.21655 10.97 
113 1 4.38952 21.9748 13.158 
114 1 6.58428 2.22094 13.1648 
115 1 6.58428 21.9792 15.3527 
116 1 4.38952 2.22537 15.3595 
117 1 4.38952 21.9828 17.5478 
118 1 6.58428 2.22895 17.5545 
119 1 6.58428 21.9998 19.7401 
120 1 4.38952 2.24447 19.7484 
121 1 4.38952 4.46679 21.9394 
122 1 6.58428 6.66154 21.935 
123 1 6.58428 4.39458 2.18579 
124 1 4.38952 6.58932 2.18143 
125 1 4.38952 4.39827 4.38069 
126 1 6.58428 6.59301 4.37634 
127 1 6.58428 4.40269 6.57543 
128 1 4.38952 6.59743 6.57107 
129 1 4.38952 4.40708 8.77017 
130 1 6.58428 6.60182 8.76582 
131 1 6.58428 4.41147 10.9649 
132 1 4.38952 6.60621 10.9606 
133 1 4.38952 4.41586 13.1597 
134 1 6.58428 6.6106 13.1553 
135 1 6.58428 4.42028 15.3544 
136 1 4.38952 6.61503 15.35 
137 1 4.38952 4.42397 17.5493 
138 1 6.58428 6.61871 17.5449 
139 1 6.58428 4.43955 19.7432 
140 1 4.38952 6.63429 19.7388 
141 1 4.38952 8.85629 21.9306 
142 1 6.58428 11.051 21.9263 
143 1 6.58428 8.78408 2.17705 
144 1 4.38952 10.9788 2.17266 
145 1 4.38952 8.78777 4.37195 
146 1 6.58428 10.9825 4.36756 
147 1 6.58428 8.79219 6.56668 
148 1 4.38952 10.9869 6.56229 
149 1 4.38952 8.79658 8.76143 
150 1 6.58428 10.9913 8.75704 
151 1 6.58428 8.80097 10.9562 
152 1 4.38952 10.9957 10.9518 
153 1 4.38952 8.80536 13.1509 
154 1 6.58428 11.0001 13.1465 
155 1 6.58428 8.80978 15.3457 
156 1 4.38952 11.0045 15.3413 
157 1 4.38952 8.81347 17.5406 
158 1 6.58428 11.0082 17.5362 
159 1 6.58428 8.82905 19.7344 
160 1 4.38952 11.0238 19.73 
161 1 4.38952 13.2458 21.9219 
162 1 6.58428 15.4405 21.9175 
163 1 6.58428 13.1736 2.16827 
164 1 4.38952 15.3683 2.16391 
165 1 4.38952 13.1773 4.36317 
166 1 6.58428 15.372 4.35881 
167 1 6.58428 13.1817 6.5579 
168 1 4.38952 15.3764 6.55355 
169 1 4.38952 13.1861 8.75265 
170 1 6.58428 15.3808 8.7483 
171 1 6.58428 13.1905 10.9474 
172 1 4.38952 15.3852 10.943 
173 1 4.38952 13.1949 13.1421 
174 1 6.58428 15.3896 13.1378 
175 1 6.58428 13.1993 15.3369 
176 1 4.38952 15.394 15.3325 
177 1 4.38952 13.203 17.5318 
178 1 6.58428 15.3977 17.5274 
179 1 6.58428 13.2186 19.7257 
180 1 4.38952 15.4133 19.7213 
181 1 4.38952 17.6356 21.9123 
182 1 6.58428 19.8279 21.9206 
183 1 6.58428 17.5634 2.15872 
184 1 4.38952 19.7572 2.16546 
185 1 4.38952 17.5669 4.35372 
186 1 6.58428 19.7608 4.36053 
187 1 6.58428 17.5714 6.54845 
188 1 4.38952 19.7652 6.55526 
189 1 4.38952 17.5758 8.7432 
190 1 6.58428 19.7696 8.75001 
191 1 6.58428 17.5801 10.9379 
192 1 4.38952 19.774 10.9448 
193 1 4.38952 17.5845 13.1327 
194 1 6.58428 19.7783 13.1395 
195 1 6.58428 17.589 15.3274 
196 1 4.38952 19.7828 15.3342 
197 1 4.38952 17.5927 17.5224 
198 1 6.58428 19.7866 17.5293 
199 1 6.58428 17.6084 19.7163 
200 1 4.38952 19.8009 19.7218 
201 1 8.77904 -0.00856056 -0.00862708 
202 1 10.9738 2.27173 21.9444 
203 1 10.9738 21.9534 2.18393 
204 1 8.77904 2.19958 2.1908 
205 1 8.77904 21.9572 4.37898 
206 1 10.9738 2.20335 4.38579 
207 1 10.9738 21.9616 6.57371 
208 1 8.77904 2.20777 6.58052 
209 1 8.77904 21.966 8.76846 
210 1 10.9738 2.21216 8.77527 
211 1 10.9738 21.9704 10.9632 
212 1 8.77904 2.21655 10.97 
213 1 8.77904 21.9748 13.158 
214 1 10.9738 2.22094 13.1648 
215 1 10.9738 21.9792 15.3527 
216 1 8.77904 2.22537 15.3595 
217 1 8.77904 21.9828 17.5478 
218 1 10.9738 2.22895 17.5545 
219 1 10.9738 21.9998 19.7401 
220 1 8.77904 2.24447 19.7484 
221 1 8.77904 4.46679 21.9394 
222 1 10.9738 6.66154 21.935 
223 1 10.9738 4.39458 2.18579 
224 1 8.77904 6.58932 2.18143 
225 1 8.77904 4.39827 4.38069 
226 1 10.9738 6.59301 4.37634 
227 1 10.9738 4.40269 6.57543 
228 1 8.77904 6.59743 6.57107 
229 1 8.77904 4.40708 8.77017 
230 1 10.9738 6.60182 8.76582 
231 1 10.9738 4.41147 10.9649 
232 1 8.77904 6.60621 10.9606 
233 1 8.77904 4.41586 13.1597 
234 1 10.9738 6.6106 13.1553 
235 1 10.9738 4.42028 15.3544 
236 1 8.77904 6.61503 15.35 
237 1 8.77904 4.42397 17.5493 
238 1 10.9738 6.61871 17.5449 
239 1 10.9738 4.43955 19.7432 
240 1 8.77904 6.63429 19.7388 
241 1 8.77904 8.85629 21.9306 
242 1 10.9738 11.051 21.9263 
243 1 10.9738 8.78408 2.17705 
244 1 8.77904 10.9788 2.17266 
245 1 8.77904 8.78777 4.37195 
246 1 10.9738 10.9825 4.36756 
247 1 10.9738 8.79219 6.56668 
248 1 8.77904 10.9869 6.56229 
249 1 8.77904 8.79658 8.76143 
250 1 10.9738 10.9913 8.75704 
251 1 10.9738 8.80097 10.9562 
252 1 8.77904 10.9957 10.9518 
253 1 8.77904 8.80536 13.1509 
254 1 10.9738 11.0001 13.1465 
255 1 10.9738 8.80978 15.3457 
256 1 8.77904 11.0045 15.3413 
257 1 8.77904 8.81347 17.5406 
258 1 10.9738 11.0082 17.5362 
259 1 10.9738 8.82905 19.7344 
260 1 8.77904 11.0238 19.73 
261 1 8.77904 13.2458 21.9219 
262 1 10.9738 15.4405 21.9175 
263 1 10.9738 13.1736 2.16827 
264 1 8.77904 15.3683 2.16391 
265 1 8.77904 13.1773 4.36317 
266 1 10.9738 15.372 4.35881 
267 1 10.9738 13.1817 6.5579 
268 1 8.77904 15.3764 6.55355 
269 1 8.77904 13.1861 8.75265 
270 1 10.9738 15.3808 8.7483 
271 1 10.9738 13.1905 10.9474 
272 1 8.77904 15.3852 10.943 
273 1 8.77904 13.1949 13.1421 
274 1 10.9738 15.3896 13.1378 
275 1 10.9738 13.1993 15.3369 
276 1 8.77904 15.394 15.3325 
277 1 8.77904 13.203 17.5318 
278 1 10.9738 15.3977 17.5274 
279 1 10.9738 13.2186 19.7257 
280 1 8.77904 15.4133 19.7213 
281 1 8.77904 17.6356 21.9123 
282 1 10.9738 19.8279 21.9206 
283 1 10.9738 17.5634 2.15872 
284 1 8.77904 19.7572 2.16546 
285 1 8.77904 17.5669 4.35372 
286 1 10.9738 19.7608 4.36053 
287 1 10.9738 17.5714 6.54845 
288 1 8.77904 19.7652 6.55526 
289 1 8.77904 17.5758 8.7432 
290 1 10.9738 19.7696 8.75001 
291 1 10.9738 17.5801 10.9379 
292 1 8.77904 19.774 10.9448 
293 1 8.77904 17.5845 13.1327 
294 1 10.9738 19.7783 13.1395 
295 1 10.9738 17.589 15.3274 
296 1 8.77904 19.7828 15.3342 
297 1 8.77904 17.5927 17.5224 
298 1 10.9738 19.7866 17.5293 
299 1 10.9738 17.6084 19.7163 
300 1 8.77904 19.8009 19.7218 
301 1 13.1686 -0.00856056 -0.00862708 
302 1 15.3633 2.27173 21.9444 
303 1 15.3633 21.9534 2.18393 
304 1 13.1686 2.19958 2.1908 
305 1 13.1686 21.9572 4.37898 
306 1 15.3633 2.20335 4.38579 
307 1 15.3633 21.9616 6.57371 
308 1 13.1686 2.20777 6.58052 
309 1 13.1686 21.966 8.76846 
310 1 15.3633 2.21216 8.77527 
311 1 15.3633 21.9704 10.9632 
312 1 13.1686 2.21655 10.97 
313 1 13.1686 21.9748 13.158 
314 1 15.3633 2.22094 13.1648 
315 1 15.3633 21.9792 15.3527 
316 1 13.1686 2.22537 15.3595 
317 1 13.1686 21.9828 17.5478 
318 1 15.3633 2.22895 17.5545 
319 1 15.3633 21.9998 19.7401 
320 1 13.1686 2.24447 19.7484 
321 1 13.1686 4.46679 21.9394 
322 1 15.3633 6.66154 21.935 
323 1 15.3633 4.39458 2.18579 
324 1 13.1686 6.58932 2.18143 
325 1 13.1686 4.39827 4.38069 
326 1 15.3633 6.59301 4.37634 
327 1 15.3633 4.40269 6.57543 
328 1 13.1686 6.59743 6.57107 
329 1 13.1686 4.40708 8.77017 
330 1 15.3633 6.60182 8.76582 
331 1 15.3633 4.41147 10.9649 
332 1 13.1686 6.60621 10.9606 
333 1 13.1686 4.41586 13.1597 
334 1 15.3633 6.6106 13.1553 
335 1 15.3633 4.42028 15.3544 
336 1 13.1686 6.61503 15.35 
337 1 13.1686 4.42397 17.5493 
338 1 15.3633 6.61871 17.5449 
339 1 15.3633 4.43955 19.7432 
340 1 13.1686 6.63429 19.7388 
341 1 13.1686 8.85629 21.9306 
342 1 15.3633 11.051 21.9263 
343 1 15.3633 8.78408 2.17705 
344 1 13.1686 10.9788 2.17266 
345 1 13.1686 8.78777 4.37195 
346 1 15.3633 10.9825 4.36756 
347 1 15.3633 8.79219 6.56668 
348 1 13.1686 10.9869 6.56229 
349 1 13.1686 8.79658 8.76143 
350 1 15.3633 10.9913 8.75704 
351 1 15.3633 8.80097 10.9562 
352 1 13.1686 10.9957 10.9518 
353 1 13.1686 8.80536 13.1509 
354 1 15.3633 11.0001 13.1465 
355 1 15.3633 8.80978 15.3457 
356 1 13.1686 11.0045 15.3413 
357 1 13.1686 8.81347 17.5406 
358 1 15.3633 11.0082 17.5362 
359 1 15.3633 8.82905 19.7344 
360 1 13.1686 11.0238 19.73 
361 1 13.1686 13.2458 21.9219 
362 1 15.3633 15.4405 21.9175 
363 1 15.3633 13.1736 2.16827 
364 1 13.1686 15.3683 2.16391 
365 1 13.1686 13.1773 4.36317 
366 1 15.3633 15.372 4.35881 
367 1 15.3633 13.1817 6.5579 
368 1 13.1686 15.3764 6.55355 
369 1 13.1686 13.1861 8.75265 
370 1 15.3633 15.3808 8.7483 
371 1 15.3633 13.1905 10.9474 
372 1 13.1686 15.3852 10.943 
373 1 13.1686 13.1949 13.1421 
374 1 15.3633 15.3896 13.1378 
375 1 15.3633 13.1993 15.3369 
376 1 13.1686 15.394 15.3325 
377 1 13.1686 13.203 17.5318 
378 1 15.3633 15.3977 17.5274 
379 1 15.3633 13.2186 19.7257 
380 1 13.1686 15.4133 19.7213 
381 1 13.1686 17.6356 21.9123 
382 1 15.3633 19.8279 21.9206 
383 1 15.3633 17.5634 2.15872 
384 1 13.1686 19.7572 2.16546 
385 1 13.1686 17.5669 4.35372 
386 1 15.3633 19.7608 4.36053 
387 1 15.3633 17.5714 6.54845 
388 1 13.1686 19.7652 6.55526 
389 1 13.1686 17.5758 8.7432 
390 1 15.3633 19.7696 8.75001 
391 1 15.3633 17.5801 10.9379 
392 1 13.1686 19.774 10.9448 
393 1 13.1686 17.5845 13.1327 
394 1 15.3633 19.7783 13.1395 
395 1 15.3633 17.589 15.3274 
396 1 13.1686 19.7828 15.3342 
397 1 13.1686 17.5927 17.5224 
398 1 15.3633 19.7866 17.5293 
399 1 15.3633 17.6084 19.7163 
400 1 13.1686 19.8009 19.7218 
401 1 17.5581 -0.00856056 -0.00862708 
402 1 19.7528 2.27173 21.9444 
403 1 19.7528 21.9534 2.18393 
404 1 17.5581 2.19958 2.1908 
405 1 17.5581 21.9572 4.37898 
406 1 19.7528 2.20335 4.38579 
407 1 19.7528 21.9616 6.57371 
408 1 17.5581 2.20777 6.58052 
409 1 17.5581 21.966 8.76846 
410 1 19.7528 2.21216 8.77527 
411 1 19.7528 21.9704 10.9632 
412 1 17.5581 2.21655 10.97 
413 1 17.5581 21.9748 13.158 
414 1 19.7528 2.22094 13.1648 
415 1 19.7528 21.9792 15.3527 
416 1 17.5581 2.22537 15.3595 
417 1 17.5581 21.9828 17.5478 
418 1 19.7528 2.22895 17.5545 
419 1 19.7528 21.9998 19.7401 
420 1 17.5581 2.24447 19.7484 
421 1 17.5581 4.46679 21.9394 
422 1 19.7528 6.66154 21.935 
423 1 19.7528 4.39458 2.18579 
424 1 17.5581 6.58932 2.18143 
425 1 17.5581 4.39827 4.38069 
426 1 19.7528 6.59301 4.37634 
427 1 19.7528 4.40269 6.57543 
428 1 17.5581 6.59743 6.57107 
429 1 17.5581 4.40708 8.77017 
430 1 19.7528 6.60182 8.76582 
431 1 19.7528 4.41147 10.9649 
432 1 17.5581 6.60621 10.9606 
433 1 17.5581 4.41586 13.1597 
434 1 19.7528 6.6106 13.1553 
435 1 19.7528 4.42028 15.3544 
436 1 17.5581 6.61503 15.35 
437 1 17.5581 4.42397 17.5493 
438 1 19.7528 6.61871 17.5449 
439 1 19.7528 4.43955 19.7432 
440 1 17.5581 6.63429 19.7388 
441 1 17.5581 8.85629 21.9306 
442 1 19.7528 11.051 21.9263 
443 1 19.7528 8.78408 2.17705 
444 1 17.5581 10.9788 2.17266 
445 1 17.5581 8.78777 4.37195 
446 1 19.7528 10.9825 4.36756 
447 1 19.7528 8.79219 6.56668 
448 1 17.5581 10.9869 6.56229 
449 1 17.5581 8.79658 8.76143 
450 1 19.7528 10.9913 8.75704 
451 1 19.7528 8.80097 10.9562 
452 1 17.5581 10.9957 10.9518 
453 1 17.5581 8.80536 13.1509 
454 1 19.7528 11.0001 13.1465 
455 1 19.7528 8.80978 15.3457 
456 1 17.5581 11.0045 15.3413 
457 1 17.5581 8.81347 17.5406 
458 1 19.7528 11.0082 17.5362 