 
 500 atoms 
 
 1 atom types
 0.00000000000000000000 26.23000000000000042633 xlo xhi
 0.00000000000000000000 26.23000000000000042633 ylo yhi
 0.00000000000000000000 14.16419999999999923546 zlo zhi
 
 Atoms 
 
	1	1	0.90546099999999996033	0.90546099999999996033	0.48894900000000002249
	2	1	3.43792000000000008697	0.90546099999999996033	1.17270999999999991914
	3	1	3.43792000000000008697	3.43792000000000008697	1.85647000000000006459
	4	1	0.90546099999999996033	3.43792000000000008697	2.54023999999999983146
	5	1	0.90546099999999996033	0.90546099999999996033	3.22400000000000019895
	6	1	5.97036999999999995481	0.90546099999999996033	0.48894900000000002249
	7	1	5.97036999999999995481	3.43792000000000008697	2.54023999999999983146
	8	1	5.97036999999999995481	0.90546099999999996033	3.22400000000000019895
	9	1	8.50281999999999982265	0.90546099999999996033	1.17270999999999991914
	10	1	8.50281999999999982265	3.43792000000000008697	1.85647000000000006459
	11	1	11.03529999999999944293	0.90546099999999996033	0.48894900000000002249
	12	1	11.03529999999999944293	3.43792000000000008697	2.54023999999999983146
	13	1	11.03529999999999944293	0.90546099999999996033	3.22400000000000019895
	14	1	13.56770000000000031548	0.90546099999999996033	1.17270999999999991914
	15	1	13.56770000000000031548	3.43792000000000008697	1.85647000000000006459
	16	1	16.10020000000000095497	0.90546099999999996033	0.48894900000000002249
	17	1	18.63260000000000005116	0.90546099999999996033	1.17270999999999991914
	18	1	18.63260000000000005116	3.43792000000000008697	1.85647000000000006459
	19	1	16.10020000000000095497	3.43792000000000008697	2.54023999999999983146
	20	1	16.10020000000000095497	0.90546099999999996033	3.22400000000000019895
	21	1	21.16509999999999891429	0.90546099999999996033	0.48894900000000002249
	22	1	21.16509999999999891429	3.43792000000000008697	2.54023999999999983146
	23	1	21.16509999999999891429	0.90546099999999996033	3.22400000000000019895
	24	1	23.69750000000000156319	0.90546099999999996033	1.17270999999999991914
	25	1	23.69750000000000156319	3.43792000000000008697	1.85647000000000006459
	26	1	0.90546099999999996033	5.97036999999999995481	0.48894900000000002249
	27	1	3.43792000000000008697	5.97036999999999995481	1.17270999999999991914
	28	1	0.90546099999999996033	5.97036999999999995481	3.22400000000000019895
	29	1	5.97036999999999995481	5.97036999999999995481	0.48894900000000002249
	30	1	5.97036999999999995481	5.97036999999999995481	3.22400000000000019895
	31	1	8.50281999999999982265	5.97036999999999995481	1.17270999999999991914
	32	1	11.03529999999999944293	5.97036999999999995481	0.48894900000000002249
	33	1	11.03529999999999944293	5.97036999999999995481	3.22400000000000019895
	34	1	13.56770000000000031548	5.97036999999999995481	1.17270999999999991914
	35	1	16.10020000000000095497	5.97036999999999995481	0.48894900000000002249
	36	1	18.63260000000000005116	5.97036999999999995481	1.17270999999999991914
	37	1	16.10020000000000095497	5.97036999999999995481	3.22400000000000019895
	38	1	21.16509999999999891429	5.97036999999999995481	0.48894900000000002249
	39	1	21.16509999999999891429	5.97036999999999995481	3.22400000000000019895
	40	1	23.69750000000000156319	5.97036999999999995481	1.17270999999999991914
	41	1	3.43792000000000008697	8.50281999999999982265	1.85647000000000006459
	42	1	0.90546099999999996033	8.50281999999999982265	2.54023999999999983146
	43	1	0.90546099999999996033	11.03529999999999944293	0.48894900000000002249
	44	1	3.43792000000000008697	11.03529999999999944293	1.17270999999999991914
	45	1	0.90546099999999996033	11.03529999999999944293	3.22400000000000019895
	46	1	5.97036999999999995481	8.50281999999999982265	2.54023999999999983146
	47	1	5.97036999999999995481	11.03529999999999944293	0.48894900000000002249
	48	1	5.97036999999999995481	11.03529999999999944293	3.22400000000000019895
	49	1	8.50281999999999982265	8.50281999999999982265	1.85647000000000006459
	50	1	8.50281999999999982265	11.03529999999999944293	1.17270999999999991914
	51	1	11.03529999999999944293	8.50281999999999982265	2.54023999999999983146
	52	1	11.03529999999999944293	11.03529999999999944293	0.48894900000000002249
	53	1	11.03529999999999944293	11.03529999999999944293	3.22400000000000019895
	54	1	13.56770000000000031548	8.50281999999999982265	1.85647000000000006459
	55	1	13.56770000000000031548	11.03529999999999944293	1.17270999999999991914
	56	1	18.63260000000000005116	8.50281999999999982265	1.85647000000000006459
	57	1	16.10020000000000095497	8.50281999999999982265	2.54023999999999983146
	58	1	16.10020000000000095497	11.03529999999999944293	0.48894900000000002249
	59	1	18.63260000000000005116	11.03529999999999944293	1.17270999999999991914
	60	1	16.10020000000000095497	11.03529999999999944293	3.22400000000000019895
	61	1	21.16509999999999891429	8.50281999999999982265	2.54023999999999983146
	62	1	21.16509999999999891429	11.03529999999999944293	0.48894900000000002249
	63	1	21.16509999999999891429	11.03529999999999944293	3.22400000000000019895
	64	1	23.69750000000000156319	8.50281999999999982265	1.85647000000000006459
	65	1	23.69750000000000156319	11.03529999999999944293	1.17270999999999991914
	66	1	3.43792000000000008697	13.56770000000000031548	1.85647000000000006459
	67	1	0.90546099999999996033	13.56770000000000031548	2.54023999999999983146
	68	1	5.97036999999999995481	13.56770000000000031548	2.54023999999999983146
	69	1	8.50281999999999982265	13.56770000000000031548	1.85647000000000006459
	70	1	11.03529999999999944293	13.56770000000000031548	2.54023999999999983146
	71	1	13.56770000000000031548	13.56770000000000031548	1.85647000000000006459
	72	1	18.63260000000000005116	13.56770000000000031548	1.85647000000000006459
	73	1	16.10020000000000095497	13.56770000000000031548	2.54023999999999983146
	74	1	21.16509999999999891429	13.56770000000000031548	2.54023999999999983146
	75	1	23.69750000000000156319	13.56770000000000031548	1.85647000000000006459
	76	1	0.90546099999999996033	16.10020000000000095497	0.48894900000000002249
	77	1	3.43792000000000008697	16.10020000000000095497	1.17270999999999991914
	78	1	3.43792000000000008697	18.63260000000000005116	1.85647000000000006459
	79	1	0.90546099999999996033	18.63260000000000005116	2.54023999999999983146
	80	1	0.90546099999999996033	16.10020000000000095497	3.22400000000000019895
	81	1	5.97036999999999995481	16.10020000000000095497	0.48894900000000002249
	82	1	5.97036999999999995481	18.63260000000000005116	2.54023999999999983146
	83	1	5.97036999999999995481	16.10020000000000095497	3.22400000000000019895
	84	1	8.50281999999999982265	16.10020000000000095497	1.17270999999999991914
	85	1	8.50281999999999982265	18.63260000000000005116	1.85647000000000006459
	86	1	11.03529999999999944293	16.10020000000000095497	0.48894900000000002249
	87	1	11.03529999999999944293	18.63260000000000005116	2.54023999999999983146
	88	1	11.03529999999999944293	16.10020000000000095497	3.22400000000000019895
	89	1	13.56770000000000031548	16.10020000000000095497	1.17270999999999991914
	90	1	13.56770000000000031548	18.63260000000000005116	1.85647000000000006459
	91	1	16.10020000000000095497	16.10020000000000095497	0.48894900000000002249
	92	1	18.63260000000000005116	16.10020000000000095497	1.17270999999999991914
	93	1	18.63260000000000005116	18.63260000000000005116	1.85647000000000006459
	94	1	16.10020000000000095497	18.63260000000000005116	2.54023999999999983146
	95	1	16.10020000000000095497	16.10020000000000095497	3.22400000000000019895
	96	1	21.16509999999999891429	16.10020000000000095497	0.48894900000000002249
	97	1	21.16509999999999891429	18.63260000000000005116	2.54023999999999983146
	98	1	21.16509999999999891429	16.10020000000000095497	3.22400000000000019895
	99	1	23.69750000000000156319	16.10020000000000095497	1.17270999999999991914
	100	1	23.69750000000000156319	18.63260000000000005116	1.85647000000000006459
	101	1	0.90546099999999996033	21.16509999999999891429	0.48894900000000002249
	102	1	3.43792000000000008697	21.16509999999999891429	1.17270999999999991914
	103	1	0.90546099999999996033	21.16509999999999891429	3.22400000000000019895
	104	1	5.97036999999999995481	21.16509999999999891429	0.48894900000000002249
	105	1	5.97036999999999995481	21.16509999999999891429	3.22400000000000019895
	106	1	8.50281999999999982265	21.16509999999999891429	1.17270999999999991914
	107	1	11.03529999999999944293	21.16509999999999891429	0.48894900000000002249
	108	1	11.03529999999999944293	21.16509999999999891429	3.22400000000000019895
	109	1	13.56770000000000031548	21.16509999999999891429	1.17270999999999991914
	110	1	16.10020000000000095497	21.16509999999999891429	0.48894900000000002249
	111	1	18.63260000000000005116	21.16509999999999891429	1.17270999999999991914
	112	1	16.10020000000000095497	21.16509999999999891429	3.22400000000000019895
	113	1	21.16509999999999891429	21.16509999999999891429	0.48894900000000002249
	114	1	21.16509999999999891429	21.16509999999999891429	3.22400000000000019895
	115	1	23.69750000000000156319	21.16509999999999891429	1.17270999999999991914
	116	1	3.43792000000000008697	23.69750000000000156319	1.85647000000000006459
	117	1	0.90546099999999996033	23.69750000000000156319	2.54023999999999983146
	118	1	5.97036999999999995481	23.69750000000000156319	2.54023999999999983146
	119	1	8.50281999999999982265	23.69750000000000156319	1.85647000000000006459
	120	1	11.03529999999999944293	23.69750000000000156319	2.54023999999999983146
	121	1	13.56770000000000031548	23.69750000000000156319	1.85647000000000006459
	122	1	18.63260000000000005116	23.69750000000000156319	1.85647000000000006459
	123	1	16.10020000000000095497	23.69750000000000156319	2.54023999999999983146
	124	1	21.16509999999999891429	23.69750000000000156319	2.54023999999999983146
	125	1	23.69750000000000156319	23.69750000000000156319	1.85647000000000006459
	126	1	3.43792000000000008697	0.90546099999999996033	3.90776000000000012236
	127	1	3.43792000000000008697	3.43792000000000008697	4.59152000000000004576
	128	1	0.90546099999999996033	3.43792000000000008697	5.27529000000000003467
	129	1	0.90546099999999996033	0.90546099999999996033	5.95905000000000040217
	130	1	3.43792000000000008697	0.90546099999999996033	6.64280999999999988148
	131	1	5.97036999999999995481	3.43792000000000008697	5.27529000000000003467
	132	1	5.97036999999999995481	0.90546099999999996033	5.95905000000000040217
	133	1	8.50281999999999982265	0.90546099999999996033	3.90776000000000012236
	134	1	8.50281999999999982265	3.43792000000000008697	4.59152000000000004576
	135	1	8.50281999999999982265	0.90546099999999996033	6.64280999999999988148
	136	1	11.03529999999999944293	3.43792000000000008697	5.27529000000000003467
	137	1	11.03529999999999944293	0.90546099999999996033	5.95905000000000040217
	138	1	13.56770000000000031548	0.90546099999999996033	3.90776000000000012236
	139	1	13.56770000000000031548	3.43792000000000008697	4.59152000000000004576
	140	1	13.56770000000000031548	0.90546099999999996033	6.64280999999999988148
	141	1	18.63260000000000005116	0.90546099999999996033	3.90776000000000012236
	142	1	18.63260000000000005116	3.43792000000000008697	4.59152000000000004576
	143	1	16.10020000000000095497	3.43792000000000008697	5.27529000000000003467
	144	1	16.10020000000000095497	0.90546099999999996033	5.95905000000000040217
	145	1	18.63260000000000005116	0.90546099999999996033	6.64280999999999988148
	146	1	21.16509999999999891429	3.43792000000000008697	5.27529000000000003467
	147	1	21.16509999999999891429	0.90546099999999996033	5.95905000000000040217
	148	1	23.69750000000000156319	0.90546099999999996033	3.90776000000000012236
	149	1	23.69750000000000156319	3.43792000000000008697	4.59152000000000004576
	150	1	23.69750000000000156319	0.90546099999999996033	6.64280999999999988148
	151	1	3.43792000000000008697	5.97036999999999995481	3.90776000000000012236
	152	1	0.90546099999999996033	5.97036999999999995481	5.95905000000000040217
	153	1	3.43792000000000008697	5.97036999999999995481	6.64280999999999988148
	154	1	5.97036999999999995481	5.97036999999999995481	5.95905000000000040217
	155	1	8.50281999999999982265	5.97036999999999995481	3.90776000000000012236
	156	1	8.50281999999999982265	5.97036999999999995481	6.64280999999999988148
	157	1	11.03529999999999944293	5.97036999999999995481	5.95905000000000040217
	158	1	13.56770000000000031548	5.97036999999999995481	3.90776000000000012236
	159	1	13.56770000000000031548	5.97036999999999995481	6.64280999999999988148
	160	1	18.63260000000000005116	5.97036999999999995481	3.90776000000000012236
	161	1	16.10020000000000095497	5.97036999999999995481	5.95905000000000040217
	162	1	18.63260000000000005116	5.97036999999999995481	6.64280999999999988148
	163	1	21.16509999999999891429	5.97036999999999995481	5.95905000000000040217
	164	1	23.69750000000000156319	5.97036999999999995481	3.90776000000000012236
	165	1	23.69750000000000156319	5.97036999999999995481	6.64280999999999988148
	166	1	3.43792000000000008697	8.50281999999999982265	4.59152000000000004576
	167	1	0.90546099999999996033	8.50281999999999982265	5.27529000000000003467
	168	1	3.43792000000000008697	11.03529999999999944293	3.90776000000000012236
	169	1	0.90546099999999996033	11.03529999999999944293	5.95905000000000040217
	170	1	3.43792000000000008697	11.03529999999999944293	6.64280999999999988148
	171	1	5.97036999999999995481	8.50281999999999982265	5.27529000000000003467
	172	1	5.97036999999999995481	11.03529999999999944293	5.95905000000000040217
	173	1	8.50281999999999982265	8.50281999999999982265	4.59152000000000004576
	174	1	8.50281999999999982265	11.03529999999999944293	3.90776000000000012236
	175	1	8.50281999999999982265	11.03529999999999944293	6.64280999999999988148
	176	1	11.03529999999999944293	8.50281999999999982265	5.27529000000000003467
	177	1	11.03529999999999944293	11.03529999999999944293	5.95905000000000040217
	178	1	13.56770000000000031548	8.50281999999999982265	4.59152000000000004576
	179	1	13.56770000000000031548	11.03529999999999944293	3.90776000000000012236
	180	1	13.56770000000000031548	11.03529999999999944293	6.64280999999999988148
	181	1	18.63260000000000005116	8.50281999999999982265	4.59152000000000004576
	182	1	16.10020000000000095497	8.50281999999999982265	5.27529000000000003467
	183	1	18.63260000000000005116	11.03529999999999944293	3.90776000000000012236
	184	1	16.10020000000000095497	11.03529999999999944293	5.95905000000000040217
	185	1	18.63260000000000005116	11.03529999999999944293	6.64280999999999988148
	186	1	21.16509999999999891429	8.50281999999999982265	5.27529000000000003467
	187	1	21.16509999999999891429	11.03529999999999944293	5.95905000000000040217
	188	1	23.69750000000000156319	8.50281999999999982265	4.59152000000000004576
	189	1	23.69750000000000156319	11.03529999999999944293	3.90776000000000012236
	190	1	23.69750000000000156319	11.03529999999999944293	6.64280999999999988148
	191	1	3.43792000000000008697	13.56770000000000031548	4.59152000000000004576
	192	1	0.90546099999999996033	13.56770000000000031548	5.27529000000000003467
	193	1	5.97036999999999995481	13.56770000000000031548	5.27529000000000003467
	194	1	8.50281999999999982265	13.56770000000000031548	4.59152000000000004576
	195	1	11.03529999999999944293	13.56770000000000031548	5.27529000000000003467
	196	1	13.56770000000000031548	13.56770000000000031548	4.59152000000000004576
	197	1	18.63260000000000005116	13.56770000000000031548	4.59152000000000004576
	198	1	16.10020000000000095497	13.56770000000000031548	5.27529000000000003467
	199	1	21.16509999999999891429	13.56770000000000031548	5.27529000000000003467
	200	1	23.69750000000000156319	13.56770000000000031548	4.59152000000000004576
	201	1	3.43792000000000008697	16.10020000000000095497	3.90776000000000012236
	202	1	3.43792000000000008697	18.63260000000000005116	4.59152000000000004576
	203	1	0.90546099999999996033	18.63260000000000005116	5.27529000000000003467
	204	1	0.90546099999999996033	16.10020000000000095497	5.95905000000000040217
	205	1	3.43792000000000008697	16.10020000000000095497	6.64280999999999988148
	206	1	5.97036999999999995481	18.63260000000000005116	5.27529000000000003467
	207	1	5.97036999999999995481	16.10020000000000095497	5.95905000000000040217
	208	1	8.50281999999999982265	16.10020000000000095497	3.90776000000000012236
	209	1	8.50281999999999982265	18.63260000000000005116	4.59152000000000004576
	210	1	8.50281999999999982265	16.10020000000000095497	6.64280999999999988148
	211	1	11.03529999999999944293	18.63260000000000005116	5.27529000000000003467
	212	1	11.03529999999999944293	16.10020000000000095497	5.95905000000000040217
	213	1	13.56770000000000031548	16.10020000000000095497	3.90776000000000012236
	214	1	13.56770000000000031548	18.63260000000000005116	4.59152000000000004576
	215	1	13.56770000000000031548	16.10020000000000095497	6.64280999999999988148
	216	1	18.63260000000000005116	16.10020000000000095497	3.90776000000000012236
	217	1	18.63260000000000005116	18.63260000000000005116	4.59152000000000004576
	218	1	16.10020000000000095497	18.63260000000000005116	5.27529000000000003467
	219	1	16.10020000000000095497	16.10020000000000095497	5.95905000000000040217
	220	1	18.63260000000000005116	16.10020000000000095497	6.64280999999999988148
	221	1	21.16509999999999891429	18.63260000000000005116	5.27529000000000003467
	222	1	21.16509999999999891429	16.10020000000000095497	5.95905000000000040217
	223	1	23.69750000000000156319	16.10020000000000095497	3.90776000000000012236
	224	1	23.69750000000000156319	18.63260000000000005116	4.59152000000000004576
	225	1	23.69750000000000156319	16.10020000000000095497	6.64280999999999988148
	226	1	3.43792000000000008697	21.16509999999999891429	3.90776000000000012236
	227	1	0.90546099999999996033	21.16509999999999891429	5.95905000000000040217
	228	1	3.43792000000000008697	21.16509999999999891429	6.64280999999999988148
	229	1	5.97036999999999995481	21.16509999999999891429	5.95905000000000040217
	230	1	8.50281999999999982265	21.16509999999999891429	3.90776000000000012236
	231	1	8.50281999999999982265	21.16509999999999891429	6.64280999999999988148
	232	1	11.03529999999999944293	21.16509999999999891429	5.95905000000000040217
	233	1	13.56770000000000031548	21.16509999999999891429	3.90776000000000012236
	234	1	13.56770000000000031548	21.16509999999999891429	6.64280999999999988148
	235	1	18.63260000000000005116	21.16509999999999891429	3.90776000000000012236
	236	1	16.10020000000000095497	21.16509999999999891429	5.95905000000000040217
	237	1	18.63260000000000005116	21.16509999999999891429	6.64280999999999988148
	238	1	21.16509999999999891429	21.16509999999999891429	5.95905000000000040217
	239	1	23.69750000000000156319	21.16509999999999891429	3.90776000000000012236
	240	1	23.69750000000000156319	21.16509999999999891429	6.64280999999999988148
	241	1	3.43792000000000008697	23.69750000000000156319	4.59152000000000004576
	242	1	0.90546099999999996033	23.69750000000000156319	5.27529000000000003467
	243	1	5.97036999999999995481	23.69750000000000156319	5.27529000000000003467
	244	1	8.50281999999999982265	23.69750000000000156319	4.59152000000000004576
	245	1	11.03529999999999944293	23.69750000000000156319	5.27529000000000003467
	246	1	13.56770000000000031548	23.69750000000000156319	4.59152000000000004576
	247	1	18.63260000000000005116	23.69750000000000156319	4.59152000000000004576
	248	1	16.10020000000000095497	23.69750000000000156319	5.27529000000000003467
	249	1	21.16509999999999891429	23.69750000000000156319	5.27529000000000003467
	250	1	23.69750000000000156319	23.69750000000000156319	4.59152000000000004576
	251	1	3.43792000000000008697	3.43792000000000008697	7.32657000000000024897
	252	1	0.90546099999999996033	3.43792000000000008697	8.01033999999999934971
	253	1	0.90546099999999996033	0.90546099999999996033	8.69410000000000060538
	254	1	3.43792000000000008697	0.90546099999999996033	9.37786000000000008470
	255	1	3.43792000000000008697	3.43792000000000008697	10.06160000000000032117
	256	1	5.97036999999999995481	3.43792000000000008697	8.01033999999999934971
	257	1	5.97036999999999995481	0.90546099999999996033	8.69410000000000060538
	258	1	8.50281999999999982265	3.43792000000000008697	7.32657000000000024897
	259	1	8.50281999999999982265	0.90546099999999996033	9.37786000000000008470
	260	1	8.50281999999999982265	3.43792000000000008697	10.06160000000000032117
	261	1	11.03529999999999944293	3.43792000000000008697	8.01033999999999934971
	262	1	11.03529999999999944293	0.90546099999999996033	8.69410000000000060538
	263	1	13.56770000000000031548	3.43792000000000008697	7.32657000000000024897
	264	1	13.56770000000000031548	0.90546099999999996033	9.37786000000000008470
	265	1	13.56770000000000031548	3.43792000000000008697	10.06160000000000032117
	266	1	18.63260000000000005116	3.43792000000000008697	7.32657000000000024897
	267	1	16.10020000000000095497	3.43792000000000008697	8.01033999999999934971
	268	1	16.10020000000000095497	0.90546099999999996033	8.69410000000000060538
	269	1	18.63260000000000005116	0.90546099999999996033	9.37786000000000008470
	270	1	18.63260000000000005116	3.43792000000000008697	10.06160000000000032117
	271	1	21.16509999999999891429	3.43792000000000008697	8.01033999999999934971
	272	1	21.16509999999999891429	0.90546099999999996033	8.69410000000000060538
	273	1	23.69750000000000156319	3.43792000000000008697	7.32657000000000024897
	274	1	23.69750000000000156319	0.90546099999999996033	9.37786000000000008470
	275	1	23.69750000000000156319	3.43792000000000008697	10.06160000000000032117
	276	1	0.90546099999999996033	5.97036999999999995481	8.69410000000000060538
	277	1	3.43792000000000008697	5.97036999999999995481	9.37786000000000008470
	278	1	5.97036999999999995481	5.97036999999999995481	8.69410000000000060538
	279	1	8.50281999999999982265	5.97036999999999995481	9.37786000000000008470
	280	1	11.03529999999999944293	5.97036999999999995481	8.69410000000000060538
	281	1	13.56770000000000031548	5.97036999999999995481	9.37786000000000008470
	282	1	16.10020000000000095497	5.97036999999999995481	8.69410000000000060538
	283	1	18.63260000000000005116	5.97036999999999995481	9.37786000000000008470
	284	1	21.16509999999999891429	5.97036999999999995481	8.69410000000000060538
	285	1	23.69750000000000156319	5.97036999999999995481	9.37786000000000008470
	286	1	3.43792000000000008697	8.50281999999999982265	7.32657000000000024897
	287	1	0.90546099999999996033	8.50281999999999982265	8.01033999999999934971
	288	1	3.43792000000000008697	8.50281999999999982265	10.06160000000000032117
	289	1	0.90546099999999996033	11.03529999999999944293	8.69410000000000060538
	290	1	3.43792000000000008697	11.03529999999999944293	9.37786000000000008470
	291	1	5.97036999999999995481	8.50281999999999982265	8.01033999999999934971
	292	1	5.97036999999999995481	11.03529999999999944293	8.69410000000000060538
	293	1	8.50281999999999982265	8.50281999999999982265	7.32657000000000024897
	294	1	8.50281999999999982265	8.50281999999999982265	10.06160000000000032117
	295	1	8.50281999999999982265	11.03529999999999944293	9.37786000000000008470
	296	1	11.03529999999999944293	8.50281999999999982265	8.01033999999999934971
	297	1	11.03529999999999944293	11.03529999999999944293	8.69410000000000060538
	298	1	13.56770000000000031548	8.50281999999999982265	7.32657000000000024897
	299	1	13.56770000000000031548	8.50281999999999982265	10.06160000000000032117
	300	1	13.56770000000000031548	11.03529999999999944293	9.37786000000000008470
	301	1	18.63260000000000005116	8.50281999999999982265	7.32657000000000024897
	302	1	16.10020000000000095497	8.50281999999999982265	8.01033999999999934971
	303	1	18.63260000000000005116	8.50281999999999982265	10.06160000000000032117
	304	1	16.10020000000000095497	11.03529999999999944293	8.69410000000000060538
	305	1	18.63260000000000005116	11.03529999999999944293	9.37786000000000008470
	306	1	21.16509999999999891429	8.50281999999999982265	8.01033999999999934971
	307	1	21.16509999999999891429	11.03529999999999944293	8.69410000000000060538
	308	1	23.69750000000000156319	8.50281999999999982265	7.32657000000000024897
	309	1	23.69750000000000156319	8.50281999999999982265	10.06160000000000032117
	310	1	23.69750000000000156319	11.03529999999999944293	9.37786000000000008470
	311	1	3.43792000000000008697	13.56770000000000031548	7.32657000000000024897
	312	1	0.90546099999999996033	13.56770000000000031548	8.01033999999999934971
	313	1	3.43792000000000008697	13.56770000000000031548	10.06160000000000032117
	314	1	5.97036999999999995481	13.56770000000000031548	8.01033999999999934971
	315	1	8.50281999999999982265	13.56770000000000031548	7.32657000000000024897
	316	1	8.50281999999999982265	13.56770000000000031548	10.06160000000000032117
	317	1	11.03529999999999944293	13.56770000000000031548	8.01033999999999934971
	318	1	13.56770000000000031548	13.56770000000000031548	7.32657000000000024897
	319	1	13.56770000000000031548	13.56770000000000031548	10.06160000000000032117
	320	1	18.63260000000000005116	13.56770000000000031548	7.32657000000000024897
	321	1	16.10020000000000095497	13.56770000000000031548	8.01033999999999934971
	322	1	18.63260000000000005116	13.56770000000000031548	10.06160000000000032117
	323	1	21.16509999999999891429	13.56770000000000031548	8.01033999999999934971
	324	1	23.69750000000000156319	13.56770000000000031548	7.32657000000000024897
	325	1	23.69750000000000156319	13.56770000000000031548	10.06160000000000032117
	326	1	3.43792000000000008697	18.63260000000000005116	7.32657000000000024897
	327	1	0.90546099999999996033	18.63260000000000005116	8.01033999999999934971
	328	1	0.90546099999999996033	16.10020000000000095497	8.69410000000000060538
	329	1	3.43792000000000008697	16.10020000000000095497	9.37786000000000008470
	330	1	3.43792000000000008697	18.63260000000000005116	10.06160000000000032117
	331	1	5.97036999999999995481	18.63260000000000005116	8.01033999999999934971
	332	1	5.97036999999999995481	16.10020000000000095497	8.69410000000000060538
	333	1	8.50281999999999982265	18.63260000000000005116	7.32657000000000024897
	334	1	8.50281999999999982265	16.10020000000000095497	9.37786000000000008470
	335	1	8.50281999999999982265	18.63260000000000005116	10.06160000000000032117
	336	1	11.03529999999999944293	18.63260000000000005116	8.01033999999999934971
	337	1	11.03529999999999944293	16.10020000000000095497	8.69410000000000060538
	338	1	13.56770000000000031548	18.63260000000000005116	7.32657000000000024897
	339	1	13.56770000000000031548	16.10020000000000095497	9.37786000000000008470
	340	1	13.56770000000000031548	18.63260000000000005116	10.06160000000000032117
	341	1	18.63260000000000005116	18.63260000000000005116	7.32657000000000024897
	342	1	16.10020000000000095497	18.63260000000000005116	8.01033999999999934971
	343	1	16.10020000000000095497	16.10020000000000095497	8.69410000000000060538
	344	1	18.63260000000000005116	16.10020000000000095497	9.37786000000000008470
	345	1	18.63260000000000005116	18.63260000000000005116	10.06160000000000032117
	346	1	21.16509999999999891429	18.63260000000000005116	8.01033999999999934971
	347	1	21.16509999999999891429	16.10020000000000095497	8.69410000000000060538
	348	1	23.69750000000000156319	18.63260000000000005116	7.32657000000000024897
	349	1	23.69750000000000156319	16.10020000000000095497	9.37786000000000008470
	350	1	23.69750000000000156319	18.63260000000000005116	10.06160000000000032117
	351	1	0.90546099999999996033	21.16509999999999891429	8.69410000000000060538
	352	1	3.43792000000000008697	21.16509999999999891429	9.37786000000000008470
	353	1	5.97036999999999995481	21.16509999999999891429	8.69410000000000060538
	354	1	8.50281999999999982265	21.16509999999999891429	9.37786000000000008470
	355	1	11.03529999999999944293	21.16509999999999891429	8.69410000000000060538
	356	1	13.56770000000000031548	21.16509999999999891429	9.37786000000000008470
	357	1	16.10020000000000095497	21.16509999999999891429	8.69410000000000060538
	358	1	18.63260000000000005116	21.16509999999999891429	9.37786000000000008470
	359	1	21.16509999999999891429	21.16509999999999891429	8.69410000000000060538
	360	1	23.69750000000000156319	21.16509999999999891429	9.37786000000000008470
	361	1	3.43792000000000008697	23.69750000000000156319	7.32657000000000024897
	362	1	0.90546099999999996033	23.69750000000000156319	8.01033999999999934971
	363	1	3.43792000000000008697	23.69750000000000156319	10.06160000000000032117
	364	1	5.97036999999999995481	23.69750000000000156319	8.01033999999999934971
	365	1	8.50281999999999982265	23.69750000000000156319	7.32657000000000024897
	366	1	8.50281999999999982265	23.69750000000000156319	10.06160000000000032117
	367	1	11.03529999999999944293	23.69750000000000156319	8.01033999999999934971
	368	1	13.56770000000000031548	23.69750000000000156319	7.32657000000000024897
	369	1	13.56770000000000031548	23.69750000000000156319	10.06160000000000032117
	370	1	18.63260000000000005116	23.69750000000000156319	7.32657000000000024897
	371	1	16.10020000000000095497	23.69750000000000156319	8.01033999999999934971
	372	1	18.63260000000000005116	23.69750000000000156319	10.06160000000000032117
	373	1	21.16509999999999891429	23.69750000000000156319	8.01033999999999934971
	374	1	23.69750000000000156319	23.69750000000000156319	7.32657000000000024897
	375	1	23.69750000000000156319	23.69750000000000156319	10.06160000000000032117
	376	1	0.90546099999999996033	3.43792000000000008697	10.74540000000000006253
	377	1	0.90546099999999996033	0.90546099999999996033	11.42919999999999980389
	378	1	3.43792000000000008697	0.90546099999999996033	12.11289999999999977831
	379	1	3.43792000000000008697	3.43792000000000008697	12.79669999999999951967
	380	1	0.90546099999999996033	3.43792000000000008697	13.48039999999999949409
	381	1	5.97036999999999995481	3.43792000000000008697	10.74540000000000006253
	382	1	5.97036999999999995481	0.90546099999999996033	11.42919999999999980389
	383	1	5.97036999999999995481	3.43792000000000008697	13.48039999999999949409
	384	1	8.50281999999999982265	0.90546099999999996033	12.11289999999999977831
	385	1	8.50281999999999982265	3.43792000000000008697	12.79669999999999951967
	386	1	11.03529999999999944293	3.43792000000000008697	10.74540000000000006253