 
 500 atoms 
 
 1 atom types
 0.00000000000000000000 27.13546230735074971108 xlo xhi
 0.00000000000000000000 27.13546230735074971108 ylo yhi
 0.00000000000000000000 14.65314964596940505714 zlo zhi
 
 Atoms 
 
	1	1	0.00000000000000000000	0.00000000000000000000	0.00000000000000000000
	2	1	2.71354623073507505993	0.00000000000000000000	0.73265748229847027506
	3	1	2.71354623073507505993	2.71354623073507505993	1.46531496459694055012
	4	1	0.00000000000000000000	2.71354623073507505993	2.19797244689541093621
	5	1	0.00000000000000000000	0.00000000000000000000	2.93062992919388110025
	6	1	2.71354623073507505993	0.00000000000000000000	3.66328741149235126429
	7	1	2.71354623073507505993	2.71354623073507505993	4.39594489379082187241
	8	1	0.00000000000000000000	2.71354623073507505993	5.12860237608929203645
	9	1	0.00000000000000000000	0.00000000000000000000	5.86125985838776220049
	10	1	2.71354623073507505993	0.00000000000000000000	6.59391734068623236453
	11	1	2.71354623073507505993	2.71354623073507505993	7.32657482298470252857
	12	1	0.00000000000000000000	2.71354623073507505993	8.05923230528317269261
	13	1	0.00000000000000000000	0.00000000000000000000	8.79188978758164374483
	14	1	2.71354623073507505993	0.00000000000000000000	9.52454726988011479705
	15	1	2.71354623073507505993	2.71354623073507505993	10.25720475217858407291
	16	1	0.00000000000000000000	2.71354623073507505993	10.98986223447705512513
	17	1	0.00000000000000000000	0.00000000000000000000	11.72251971677552440099
	18	1	2.71354623073507505993	0.00000000000000000000	12.45517719907399545320
	19	1	2.71354623073507505993	2.71354623073507505993	13.18783468137246472907
	20	1	0.00000000000000000000	2.71354623073507505993	13.92049216367093578128
	21	1	0.00000000000000000000	5.42709246147015011985	0.00000000000000000000
	22	1	2.71354623073507505993	5.42709246147015011985	0.73265748229847027506
	23	1	2.71354623073507505993	8.14063869220522562387	1.46531496459694055012
	24	1	0.00000000000000000000	8.14063869220522562387	2.19797244689541093621
	25	1	0.00000000000000000000	5.42709246147015011985	2.93062992919388110025
	26	1	2.71354623073507505993	5.42709246147015011985	3.66328741149235126429
	27	1	2.71354623073507505993	8.14063869220522562387	4.39594489379082187241
	28	1	0.00000000000000000000	8.14063869220522562387	5.12860237608929203645
	29	1	0.00000000000000000000	5.42709246147015011985	5.86125985838776220049
	30	1	2.71354623073507505993	5.42709246147015011985	6.59391734068623236453
	31	1	2.71354623073507505993	8.14063869220522562387	7.32657482298470252857
	32	1	0.00000000000000000000	8.14063869220522562387	8.05923230528317269261
	33	1	0.00000000000000000000	5.42709246147015011985	8.79188978758164374483
	34	1	2.71354623073507505993	5.42709246147015011985	9.52454726988011479705
	35	1	2.71354623073507505993	8.14063869220522562387	10.25720475217858407291
	36	1	0.00000000000000000000	8.14063869220522562387	10.98986223447705512513
	37	1	0.00000000000000000000	5.42709246147015011985	11.72251971677552440099
	38	1	2.71354623073507505993	5.42709246147015011985	12.45517719907399545320
	39	1	2.71354623073507505993	8.14063869220522562387	13.18783468137246472907
	40	1	0.00000000000000000000	8.14063869220522562387	13.92049216367093578128
	41	1	0.00000000000000000000	10.85418492294030023970	0.00000000000000000000
	42	1	2.71354623073507505993	10.85418492294030023970	0.73265748229847027506
	43	1	2.71354623073507505993	13.56773115367537485554	1.46531496459694055012
	44	1	0.00000000000000000000	13.56773115367537485554	2.19797244689541093621
	45	1	0.00000000000000000000	10.85418492294030023970	2.93062992919388110025
	46	1	2.71354623073507505993	10.85418492294030023970	3.66328741149235126429
	47	1	2.71354623073507505993	13.56773115367537485554	4.39594489379082187241
	48	1	0.00000000000000000000	13.56773115367537485554	5.12860237608929203645
	49	1	0.00000000000000000000	10.85418492294030023970	5.86125985838776220049
	50	1	2.71354623073507505993	10.85418492294030023970	6.59391734068623236453
	51	1	2.71354623073507505993	13.56773115367537485554	7.32657482298470252857
	52	1	0.00000000000000000000	13.56773115367537485554	8.05923230528317269261
	53	1	0.00000000000000000000	10.85418492294030023970	8.79188978758164374483
	54	1	2.71354623073507505993	10.85418492294030023970	9.52454726988011479705
	55	1	2.71354623073507505993	13.56773115367537485554	10.25720475217858407291
	56	1	0.00000000000000000000	13.56773115367537485554	10.98986223447705512513
	57	1	0.00000000000000000000	10.85418492294030023970	11.72251971677552440099
	58	1	2.71354623073507505993	10.85418492294030023970	12.45517719907399545320
	59	1	2.71354623073507505993	13.56773115367537485554	13.18783468137246472907
	60	1	0.00000000000000000000	13.56773115367537485554	13.92049216367093578128
	61	1	0.00000000000000000000	16.28127738441045124773	0.00000000000000000000
	62	1	2.71354623073507505993	16.28127738441045124773	0.73265748229847027506
	63	1	2.71354623073507505993	18.99482361514552763992	1.46531496459694055012
	64	1	0.00000000000000000000	18.99482361514552763992	2.19797244689541093621
	65	1	0.00000000000000000000	16.28127738441045124773	2.93062992919388110025
	66	1	2.71354623073507505993	16.28127738441045124773	3.66328741149235126429
	67	1	2.71354623073507505993	18.99482361514552763992	4.39594489379082187241
	68	1	0.00000000000000000000	18.99482361514552763992	5.12860237608929203645
	69	1	0.00000000000000000000	16.28127738441045124773	5.86125985838776220049
	70	1	2.71354623073507505993	16.28127738441045124773	6.59391734068623236453
	71	1	2.71354623073507505993	18.99482361514552763992	7.32657482298470252857
	72	1	0.00000000000000000000	18.99482361514552763992	8.05923230528317269261
	73	1	0.00000000000000000000	16.28127738441045124773	8.79188978758164374483
	74	1	2.71354623073507505993	16.28127738441045124773	9.52454726988011479705
	75	1	2.71354623073507505993	18.99482361514552763992	10.25720475217858407291
	76	1	0.00000000000000000000	18.99482361514552763992	10.98986223447705512513
	77	1	0.00000000000000000000	16.28127738441045124773	11.72251971677552440099
	78	1	2.71354623073507505993	16.28127738441045124773	12.45517719907399545320
	79	1	2.71354623073507505993	18.99482361514552763992	13.18783468137246472907
	80	1	0.00000000000000000000	18.99482361514552763992	13.92049216367093578128
	81	1	0.00000000000000000000	21.70836984588060047940	0.00000000000000000000
	82	1	2.71354623073507505993	21.70836984588060047940	0.73265748229847027506
	83	1	2.71354623073507505993	24.42191607661567687160	1.46531496459694055012
	84	1	0.00000000000000000000	24.42191607661567687160	2.19797244689541093621
	85	1	0.00000000000000000000	21.70836984588060047940	2.93062992919388110025
	86	1	2.71354623073507505993	21.70836984588060047940	3.66328741149235126429
	87	1	2.71354623073507505993	24.42191607661567687160	4.39594489379082187241
	88	1	0.00000000000000000000	24.42191607661567687160	5.12860237608929203645
	89	1	0.00000000000000000000	21.70836984588060047940	5.86125985838776220049
	90	1	2.71354623073507505993	21.70836984588060047940	6.59391734068623236453
	91	1	2.71354623073507505993	24.42191607661567687160	7.32657482298470252857
	92	1	0.00000000000000000000	24.42191607661567687160	8.05923230528317269261
	93	1	0.00000000000000000000	21.70836984588060047940	8.79188978758164374483
	94	1	2.71354623073507505993	21.70836984588060047940	9.52454726988011479705
	95	1	2.71354623073507505993	24.42191607661567687160	10.25720475217858407291
	96	1	0.00000000000000000000	24.42191607661567687160	10.98986223447705512513
	97	1	0.00000000000000000000	21.70836984588060047940	11.72251971677552440099
	98	1	2.71354623073507505993	21.70836984588060047940	12.45517719907399545320
	99	1	2.71354623073507505993	24.42191607661567687160	13.18783468137246472907
	100	1	0.00000000000000000000	24.42191607661567687160	13.92049216367093578128
	101	1	5.42709246147015011985	0.00000000000000000000	0.00000000000000000000
	102	1	8.14063869220522562387	0.00000000000000000000	0.73265748229847027506
	103	1	8.14063869220522562387	2.71354623073507505993	1.46531496459694055012
	104	1	5.42709246147015011985	2.71354623073507505993	2.19797244689541093621
	105	1	5.42709246147015011985	0.00000000000000000000	2.93062992919388110025
	106	1	8.14063869220522562387	0.00000000000000000000	3.66328741149235126429
	107	1	8.14063869220522562387	2.71354623073507505993	4.39594489379082187241
	108	1	5.42709246147015011985	2.71354623073507505993	5.12860237608929203645
	109	1	5.42709246147015011985	0.00000000000000000000	5.86125985838776220049
	110	1	8.14063869220522562387	0.00000000000000000000	6.59391734068623236453
	111	1	8.14063869220522562387	2.71354623073507505993	7.32657482298470252857
	112	1	5.42709246147015011985	2.71354623073507505993	8.05923230528317269261
	113	1	5.42709246147015011985	0.00000000000000000000	8.79188978758164374483
	114	1	8.14063869220522562387	0.00000000000000000000	9.52454726988011479705
	115	1	8.14063869220522562387	2.71354623073507505993	10.25720475217858407291
	116	1	5.42709246147015011985	2.71354623073507505993	10.98986223447705512513
	117	1	5.42709246147015011985	0.00000000000000000000	11.72251971677552440099
	118	1	8.14063869220522562387	0.00000000000000000000	12.45517719907399545320
	119	1	8.14063869220522562387	2.71354623073507505993	13.18783468137246472907
	120	1	5.42709246147015011985	2.71354623073507505993	13.92049216367093578128
	121	1	5.42709246147015011985	5.42709246147015011985	0.00000000000000000000
	122	1	8.14063869220522562387	5.42709246147015011985	0.73265748229847027506
	123	1	8.14063869220522562387	8.14063869220522562387	1.46531496459694055012
	124	1	5.42709246147015011985	8.14063869220522562387	2.19797244689541093621
	125	1	5.42709246147015011985	5.42709246147015011985	2.93062992919388110025
	126	1	8.14063869220522562387	5.42709246147015011985	3.66328741149235126429
	127	1	8.14063869220522562387	8.14063869220522562387	4.39594489379082187241
	128	1	5.42709246147015011985	8.14063869220522562387	5.12860237608929203645
	129	1	5.42709246147015011985	5.42709246147015011985	5.86125985838776220049
	130	1	8.14063869220522562387	5.42709246147015011985	6.59391734068623236453
	131	1	8.14063869220522562387	8.14063869220522562387	7.32657482298470252857
	132	1	5.42709246147015011985	8.14063869220522562387	8.05923230528317269261
	133	1	5.42709246147015011985	5.42709246147015011985	8.79188978758164374483
	134	1	8.14063869220522562387	5.42709246147015011985	9.52454726988011479705
	135	1	8.14063869220522562387	8.14063869220522562387	10.25720475217858407291
	136	1	5.42709246147015011985	8.14063869220522562387	10.98986223447705512513
	137	1	5.42709246147015011985	5.42709246147015011985	11.72251971677552440099
	138	1	8.14063869220522562387	5.42709246147015011985	12.45517719907399545320
	139	1	8.14063869220522562387	8.14063869220522562387	13.18783468137246472907
	140	1	5.42709246147015011985	8.14063869220522562387	13.92049216367093578128
	141	1	5.42709246147015011985	10.85418492294030023970	0.00000000000000000000
	142	1	8.14063869220522562387	10.85418492294030023970	0.73265748229847027506
	143	1	8.14063869220522562387	13.56773115367537485554	1.46531496459694055012
	144	1	5.42709246147015011985	13.56773115367537485554	2.19797244689541093621
	145	1	5.42709246147015011985	10.85418492294030023970	2.93062992919388110025
	146	1	8.14063869220522562387	10.85418492294030023970	3.66328741149235126429
	147	1	8.14063869220522562387	13.56773115367537485554	4.39594489379082187241
	148	1	5.42709246147015011985	13.56773115367537485554	5.12860237608929203645
	149	1	5.42709246147015011985	10.85418492294030023970	5.86125985838776220049
	150	1	8.14063869220522562387	10.85418492294030023970	6.59391734068623236453
	151	1	8.14063869220522562387	13.56773115367537485554	7.32657482298470252857
	152	1	5.42709246147015011985	13.56773115367537485554	8.05923230528317269261
	153	1	5.42709246147015011985	10.85418492294030023970	8.79188978758164374483
	154	1	8.14063869220522562387	10.85418492294030023970	9.52454726988011479705
	155	1	8.14063869220522562387	13.56773115367537485554	10.25720475217858407291
	156	1	5.42709246147015011985	13.56773115367537485554	10.98986223447705512513
	157	1	5.42709246147015011985	10.85418492294030023970	11.72251971677552440099
	158	1	8.14063869220522562387	10.85418492294030023970	12.45517719907399545320
	159	1	8.14063869220522562387	13.56773115367537485554	13.18783468137246472907
	160	1	5.42709246147015011985	13.56773115367537485554	13.92049216367093578128
	161	1	5.42709246147015011985	16.28127738441045124773	0.00000000000000000000
	162	1	8.14063869220522562387	16.28127738441045124773	0.73265748229847027506
	163	1	8.14063869220522562387	18.99482361514552763992	1.46531496459694055012
	164	1	5.42709246147015011985	18.99482361514552763992	2.19797244689541093621
	165	1	5.42709246147015011985	16.28127738441045124773	2.93062992919388110025
	166	1	8.14063869220522562387	16.28127738441045124773	3.66328741149235126429
	167	1	8.14063869220522562387	18.99482361514552763992	4.39594489379082187241
	168	1	5.42709246147015011985	18.99482361514552763992	5.12860237608929203645
	169	1	5.42709246147015011985	16.28127738441045124773	5.86125985838776220049
	170	1	8.14063869220522562387	16.28127738441045124773	6.59391734068623236453
	171	1	8.14063869220522562387	18.99482361514552763992	7.32657482298470252857
	172	1	5.42709246147015011985	18.99482361514552763992	8.05923230528317269261
	173	1	5.42709246147015011985	16.28127738441045124773	8.79188978758164374483
	174	1	8.14063869220522562387	16.28127738441045124773	9.52454726988011479705
	175	1	8.14063869220522562387	18.99482361514552763992	10.25720475217858407291
	176	1	5.42709246147015011985	18.99482361514552763992	10.98986223447705512513
	177	1	5.42709246147015011985	16.28127738441045124773	11.72251971677552440099
	178	1	8.14063869220522562387	16.28127738441045124773	12.45517719907399545320
	179	1	8.14063869220522562387	18.99482361514552763992	13.18783468137246472907
	180	1	5.42709246147015011985	18.99482361514552763992	13.92049216367093578128
	181	1	5.42709246147015011985	21.70836984588060047940	0.00000000000000000000
	182	1	8.14063869220522562387	21.70836984588060047940	0.73265748229847027506
	183	1	8.14063869220522562387	24.42191607661567687160	1.46531496459694055012
	184	1	5.42709246147015011985	24.42191607661567687160	2.19797244689541093621
	185	1	5.42709246147015011985	21.70836984588060047940	2.93062992919388110025
	186	1	8.14063869220522562387	21.70836984588060047940	3.66328741149235126429
	187	1	8.14063869220522562387	24.42191607661567687160	4.39594489379082187241
	188	1	5.42709246147015011985	24.42191607661567687160	5.12860237608929203645
	189	1	5.42709246147015011985	21.70836984588060047940	5.86125985838776220049
	190	1	8.14063869220522562387	21.70836984588060047940	6.59391734068623236453
	191	1	8.14063869220522562387	24.42191607661567687160	7.32657482298470252857
	192	1	5.42709246147015011985	24.42191607661567687160	8.05923230528317269261
	193	1	5.42709246147015011985	21.70836984588060047940	8.79188978758164374483
	194	1	8.14063869220522562387	21.70836984588060047940	9.52454726988011479705
	195	1	8.14063869220522562387	24.42191607661567687160	10.25720475217858407291
	196	1	5.42709246147015011985	24.42191607661567687160	10.98986223447705512513
	197	1	5.42709246147015011985	21.70836984588060047940	11.72251971677552440099
	198	1	8.14063869220522562387	21.70836984588060047940	12.45517719907399545320
	199	1	8.14063869220522562387	24.42191607661567687160	13.18783468137246472907
	200	1	5.42709246147015011985	24.42191607661567687160	13.92049216367093578128
	201	1	10.85418492294030023970	0.00000000000000000000	0.00000000000000000000
	202	1	13.56773115367537485554	0.00000000000000000000	0.73265748229847027506
	203	1	13.56773115367537485554	2.71354623073507505993	1.46531496459694055012
	204	1	10.85418492294030023970	2.71354623073507505993	2.19797244689541093621
	205	1	10.85418492294030023970	0.00000000000000000000	2.93062992919388110025
	206	1	13.56773115367537485554	0.00000000000000000000	3.66328741149235126429
	207	1	13.56773115367537485554	2.71354623073507505993	4.39594489379082187241
	208	1	10.85418492294030023970	2.71354623073507505993	5.12860237608929203645
	209	1	10.85418492294030023970	0.00000000000000000000	5.86125985838776220049
	210	1	13.56773115367537485554	0.00000000000000000000	6.59391734068623236453
	211	1	13.56773115367537485554	2.71354623073507505993	7.32657482298470252857
	212	1	10.85418492294030023970	2.71354623073507505993	8.05923230528317269261
	213	1	10.85418492294030023970	0.00000000000000000000	8.79188978758164374483
	214	1	13.56773115367537485554	0.00000000000000000000	9.52454726988011479705
	215	1	13.56773115367537485554	2.71354623073507505993	10.25720475217858407291
	216	1	10.85418492294030023970	2.71354623073507505993	10.98986223447705512513
	217	1	10.85418492294030023970	0.00000000000000000000	11.72251971677552440099
	218	1	13.56773115367537485554	0.00000000000000000000	12.45517719907399545320
	219	1	13.56773115367537485554	2.71354623073507505993	13.18783468137246472907
	220	1	10.85418492294030023970	2.71354623073507505993	13.92049216367093578128
	221	1	10.85418492294030023970	5.42709246147015011985	0.00000000000000000000
	222	1	13.56773115367537485554	5.42709246147015011985	0.73265748229847027506
	223	1	13.56773115367537485554	8.14063869220522562387	1.46531496459694055012
	224	1	10.85418492294030023970	8.14063869220522562387	2.19797244689541093621
	225	1	10.85418492294030023970	5.42709246147015011985	2.93062992919388110025
	226	1	13.56773115367537485554	5.42709246147015011985	3.66328741149235126429
	227	1	13.56773115367537485554	8.14063869220522562387	4.39594489379082187241
	228	1	10.85418492294030023970	8.14063869220522562387	5.12860237608929203645
	229	1	10.85418492294030023970	5.42709246147015011985	5.86125985838776220049
	230	1	13.56773115367537485554	5.42709246147015011985	6.59391734068623236453
	231	1	13.56773115367537485554	8.14063869220522562387	7.32657482298470252857
	232	1	10.85418492294030023970	8.14063869220522562387	8.05923230528317269261
	233	1	10.85418492294030023970	5.42709246147015011985	8.79188978758164374483
	234	1	13.56773115367537485554	5.42709246147015011985	9.52454726988011479705
	235	1	13.56773115367537485554	8.14063869220522562387	10.25720475217858407291
	236	1	10.85418492294030023970	8.14063869220522562387	10.98986223447705512513
	237	1	10.85418492294030023970	5.42709246147015011985	11.72251971677552440099
	238	1	13.56773115367537485554	5.42709246147015011985	12.45517719907399545320
	239	1	13.56773115367537485554	8.14063869220522562387	13.18783468137246472907
	240	1	10.85418492294030023970	8.14063869220522562387	13.92049216367093578128
	241	1	10.85418492294030023970	10.85418492294030023970	0.00000000000000000000
	242	1	13.56773115367537485554	10.85418492294030023970	0.73265748229847027506
	243	1	13.56773115367537485554	13.56773115367537485554	1.46531496459694055012
	244	1	10.85418492294030023970	13.56773115367537485554	2.19797244689541093621
	245	1	10.85418492294030023970	10.85418492294030023970	2.93062992919388110025
	246	1	13.56773115367537485554	10.85418492294030023970	3.66328741149235126429
	247	1	13.56773115367537485554	13.56773115367537485554	4.39594489379082187241
	248	1	10.85418492294030023970	13.56773115367537485554	5.12860237608929203645
	249	1	10.85418492294030023970	10.85418492294030023970	5.86125985838776220049
	250	1	13.56773115367537485554	10.85418492294030023970	6.59391734068623236453
	251	1	13.56773115367537485554	13.56773115367537485554	7.32657482298470252857
	252	1	10.85418492294030023970	13.56773115367537485554	8.05923230528317269261
	253	1	10.85418492294030023970	10.85418492294030023970	8.79188978758164374483
	254	1	13.56773115367537485554	10.85418492294030023970	9.52454726988011479705
	255	1	13.56773115367537485554	13.56773115367537485554	10.25720475217858407291
	256	1	10.85418492294030023970	13.56773115367537485554	10.98986223447705512513
	257	1	10.85418492294030023970	10.85418492294030023970	11.72251971677552440099
	258	1	13.56773115367537485554	10.85418492294030023970	12.45517719907399545320
	259	1	13.56773115367537485554	13.56773115367537485554	13.18783468137246472907
	260	1	10.85418492294030023970	13.56773115367537485554	13.92049216367093578128
	261	1	10.85418492294030023970	16.28127738441045124773	0.00000000000000000000
	262	1	13.56773115367537485554	16.28127738441045124773	0.73265748229847027506
	263	1	13.56773115367537485554	18.99482361514552763992	1.46531496459694055012
	264	1	10.85418492294030023970	18.99482361514552763992	2.19797244689541093621
	265	1	10.85418492294030023970	16.28127738441045124773	2.93062992919388110025
	266	1	13.56773115367537485554	16.28127738441045124773	3.66328741149235126429
	267	1	13.56773115367537485554	18.99482361514552763992	4.39594489379082187241
	268	1	10.85418492294030023970	18.99482361514552763992	5.12860237608929203645
	269	1	10.85418492294030023970	16.28127738441045124773	5.86125985838776220049
	270	1	13.56773115367537485554	16.28127738441045124773	6.59391734068623236453
	271	1	13.56773115367537485554	18.99482361514552763992	7.32657482298470252857
	272	1	10.85418492294030023970	18.99482361514552763992	8.05923230528317269261
	273	1	10.85418492294030023970	16.28127738441045124773	8.79188978758164374483
	274	1	13.56773115367537485554	16.28127738441045124773	9.52454726988011479705
	275	1	13.56773115367537485554	18.99482361514552763992	10.25720475217858407291
	276	1	10.85418492294030023970	18.99482361514552763992	10.98986223447705512513
	277	1	10.85418492294030023970	16.28127738441045124773	11.72251971677552440099
	278	1	13.56773115367537485554	16.28127738441045124773	12.45517719907399545320
	279	1	13.56773115367537485554	18.99482361514552763992	13.18783468137246472907
	280	1	10.85418492294030023970	18.99482361514552763992	13.92049216367093578128
	281	1	10.85418492294030023970	21.70836984588060047940	0.00000000000000000000
	282	1	13.56773115367537485554	21.70836984588060047940	0.73265748229847027506
	283	1	13.56773115367537485554	24.42191607661567687160	1.46531496459694055012
	284	1	10.85418492294030023970	24.42191607661567687160	2.19797244689541093621
	285	1	10.85418492294030023970	21.70836984588060047940	2.93062992919388110025
	286	1	13.56773115367537485554	21.70836984588060047940	3.66328741149235126429
	287	1	13.56773115367537485554	24.42191607661567687160	4.39594489379082187241
	288	1	10.85418492294030023970	24.42191607661567687160	5.12860237608929203645
	289	1	10.85418492294030023970	21.70836984588060047940	5.86125985838776220049
	290	1	13.56773115367537485554	21.70836984588060047940	6.59391734068623236453
	291	1	13.56773115367537485554	24.42191607661567687160	7.32657482298470252857
	292	1	10.85418492294030023970	24.42191607661567687160	8.05923230528317269261
	293	1	10.85418492294030023970	21.70836984588060047940	8.79188978758164374483
	294	1	13.56773115367537485554	21.70836984588060047940	9.52454726988011479705
	295	1	13.56773115367537485554	24.42191607661567687160	10.25720475217858407291
	296	1	10.85418492294030023970	24.42191607661567687160	10.98986223447705512513
	297	1	10.85418492294030023970	21.70836984588060047940	11.72251971677552440099
	298	1	13.56773115367537485554	21.70836984588060047940	12.45517719907399545320
	299	1	13.56773115367537485554	24.42191607661567687160	13.18783468137246472907
	300	1	10.85418492294030023970	24.42191607661567687160	13.92049216367093578128
	301	1	16.28127738441045124773	0.00000000000000000000	0.00000000000000000000
	302	1	18.99482361514552763992	0.00000000000000000000	0.73265748229847027506
	303	1	18.99482361514552763992	2.71354623073507505993	1.46531496459694055012
	304	1	16.28127738441045124773	2.71354623073507505993	2.19797244689541093621
	305	1	16.28127738441045124773	0.00000000000000000000	2.93062992919388110025
	306	1	18.99482361514552763992	0.00000000000000000000	3.66328741149235126429
	307	1	18.99482361514552763992	2.71354623073507505993	4.39594489379082187241
	308	1	16.28127738441045124773	2.71354623073507505993	5.12860237608929203645
	309	1	16.28127738441045124773	0.00000000000000000000	5.86125985838776220049
	310	1	18.99482361514552763992	0.00000000000000000000	6.59391734068623236453
	311	1	18.99482361514552763992	2.71354623073507505993	7.32657482298470252857
	312	1	16.28127738441045124773	2.71354623073507505993	8.05923230528317269261
	313	1	16.28127738441045124773	0.00000000000000000000	8.79188978758164374483
	314	1	18.99482361514552763992	0.00000000000000000000	9.52454726988011479705
	315	1	18.99482361514552763992	2.71354623073507505993	10.25720475217858407291
	316	1	16.28127738441045124773	2.71354623073507505993	10.98986223447705512513
	317	1	16.28127738441045124773	0.00000000000000000000	11.72251971677552440099
	318	1	18.99482361514552763992	0.00000000000000000000	12.45517719907399545320
	319	1	18.99482361514552763992	2.71354623073507505993	13.18783468137246472907
	320	1	16.28127738441045124773	2.71354623073507505993	13.92049216367093578128
	321	1	16.28127738441045124773	5.42709246147015011985	0.00000000000000000000
	322	1	18.99482361514552763992	5.42709246147015011985	0.73265748229847027506
	323	1	18.99482361514552763992	8.14063869220522562387	1.46531496459694055012
	324	1	16.28127738441045124773	8.14063869220522562387	2.19797244689541093621
	325	1	16.28127738441045124773	5.42709246147015011985	2.93062992919388110025
	326	1	18.99482361514552763992	5.42709246147015011985	3.66328741149235126429
	327	1	18.99482361514552763992	8.14063869220522562387	4.39594489379082187241
	328	1	16.28127738441045124773	8.14063869220522562387	5.12860237608929203645
	329	1	16.28127738441045124773	5.42709246147015011985	5.86125985838776220049
	330	1	18.99482361514552763992	5.42709246147015011985	6.59391734068623236453
	331	1	18.99482361514552763992	8.14063869220522562387	7.32657482298470252857
	332	1	16.28127738441045124773	8.14063869220522562387	8.05923230528317269261
	333	1	16.28127738441045124773	5.42709246147015011985	8.79188978758164374483
	334	1	18.99482361514552763992	5.42709246147015011985	9.52454726988011479705
	335	1	18.99482361514552763992	8.14063869220522562387	10.25720475217858407291
	336	1	16.28127738441045124773	8.14063869220522562387	10.98986223447705512513
	337	1	16.28127738441045124773	5.42709246147015011985	11.72251971677552440099
	338	1	18.99482361514552763992	5.42709246147015011985	12.45517719907399545320
	339	1	18.99482361514552763992	8.14063869220522562387	13.18783468137246472907
	340	1	16.28127738441045124773	8.14063869220522562387	13.92049216367093578128
	341	1	16.28127738441045124773	10.85418492294030023970	0.00000000000000000000
	342	1	18.99482361514552763992	10.85418492294030023970	0.73265748229847027506
	343	1	18.99482361514552763992	13.56773115367537485554	1.46531496459694055012
	344	1	16.28127738441045124773	13.56773115367537485554	2.19797244689541093621
	345	1	16.28127738441045124773	10.85418492294030023970	2.93062992919388110025
	346	1	18.99482361514552763992	10.85418492294030023970	3.66328741149235126429
	347	1	18.99482361514552763992	13.56773115367537485554	4.39594489379082187241
	348	1	16.28127738441045124773	13.56773115367537485554	5.12860237608929203645
	349	1	16.28127738441045124773	10.85418492294030023970	5.86125985838776220049
	350	1	18.99482361514552763992	10.85418492294030023970	6.59391734068623236453
	351	1	18.99482361514552763992	13.56773115367537485554	7.32657482298470252857
	352	1	16.28127738441045124773	13.56773115367537485554	8.05923230528317269261
	353	1	16.28127738441045124773	10.85418492294030023970	8.79188978758164374483
	354	1	18.99482361514552763992	10.85418492294030023970	9.52454726988011479705
	355	1	18.99482361514552763992	13.56773115367537485554	10.25720475217858407291
	356	1	16.28127738441045124773	13.56773115367537485554	10.98986223447705512513
	357	1	16.28127738441045124773	10.85418492294030023970	11.72251971677552440099
	358	1	18.99482361514552763992	10.85418492294030023970	12.45517719907399545320
	359	1	18.99482361514552763992	13.56773115367537485554	13.18783468137246472907
	360	1	16.28127738441045124773	13.56773115367537485554	13.92049216367093578128
	361	1	16.28127738441045124773	16.28127738441045124773	0.00000000000000000000
	362	1	18.99482361514552763992	16.28127738441045124773	0.73265748229847027506
	363	1	18.99482361514552763992	18.99482361514552763992	1.46531496459694055012
	364	1	16.28127738441045124773	18.99482361514552763992	2.19797244689541093621
	365	1	16.28127738441045124773	16.28127738441045124773	2.93062992919388110025
	366	1	18.99482361514552763992	16.28127738441045124773	3.66328741149235126429
	367	1	18.99482361514552763992	18.99482361514552763992	4.39594489379082187241
	368	1	16.28127738441045124773	18.99482361514552763992	5.12860237608929203645
	369	1	16.28127738441045124773	16.28127738441045124773	5.86125985838776220049
	370	1	18.99482361514552763992	16.28127738441045124773	6.59391734068623236453
	371	1	18.99482361514552763992	18.99482361514552763992	7.32657482298470252857
	372	1	16.28127738441045124773	18.99482361514552763992	8.05923230528317269261
	373	1	16.28127738441045124773	16.28127738441045124773	8.79188978758164374483
	374	1	18.99482361514552763992	16.28127738441045124773	9.52454726988011479705
	375	1	18.99482361514552763992	18.99482361514552763992	10.25720475217858407291
	376	1	16.28127738441045124773	18.99482361514552763992	10.98986223447705512513
	377	1	16.28127738441045124773	16.28127738441045124773	11.72251971677552440099
	378	1	18.99482361514552763992	16.28127738441045124773	12.45517719907399545320
	379	1	18.99482361514552763992	18.99482361514552763992	13.18783468137246472907
	380	1	16.28127738441045124773	18.99482361514552763992	13.92049216367093578128
	381	1	16.28127738441045124773	21.70836984588060047940	0.00000000000000000000
	382	1	18.99482361514552763992	21.70836984588060047940	0.73265748229847027506
	383	1	18.99482361514552763992	24.42191607661567687160	1.46531496459694055012
	384	1	16.28127738441045124773	24.42191607661567687160	2.19797244689541093621
	385	1	16.28127738441045124773	21.70836984588060047940	2.93062992919388110025
	386	1	18.99482361514552763992	21.70836984588060047940	3.66328741149235126429