ITEM: TIMESTEP
0
ITEM: NUMBER OF ATOMS
500
ITEM: BOX BOUNDS pp pp pp
0 27.1355
0 27.1355
0 14.6531
ITEM: ATOMS id type x y z fx fy fz 
1 1 0 0 0 3.29583e-15 1.66533e-15 4.45477e-15 
2 1 2.71355 0 0.732657 1.11022e-15 3.18266e-15 3.33067e-16 
3 1 2.71355 2.71355 1.46531 5.55112e-16 9.99201e-16 4.44089e-16 
4 1 0 2.71355 2.19797 3.44169e-15 1.11022e-15 2.81719e-15 
5 1 0 0 2.93063 3.29093e-15 3.33067e-15 1.04083e-15 
101 1 5.42709 0 0 1.92253e-16 1.66533e-15 7.13318e-15 
104 1 5.42709 2.71355 2.19797 -1.00382e-16 1.22125e-15 1.22125e-15 
105 1 5.42709 0 2.93063 5.53756e-16 3.44169e-15 2.85882e-15 
102 1 8.14064 0 0.732657 -2.75713e-15 2.84959e-15 4.44089e-16 
103 1 8.14064 2.71355 1.46531 -2.3696e-15 6.66134e-16 7.77156e-16 
201 1 10.8542 0 0 -3.33067e-16 1.66533e-15 4.63518e-15 
204 1 10.8542 2.71355 2.19797 2.22045e-16 1.11022e-15 2.9976e-15 
205 1 10.8542 0 2.93063 -3.33067e-16 3.21965e-15 1.34615e-15 
202 1 13.5677 0 0.732657 4.41777e-15 3.07164e-15 -5.55112e-16 
203 1 13.5677 2.71355 1.46531 3.92392e-15 1.11022e-15 1.66533e-15 
301 1 16.2813 0 0 -9.99201e-16 2.10942e-15 8.20177e-15 
302 1 18.9948 0 0.732657 -4.63423e-15 3.29368e-15 1.11022e-16 
303 1 18.9948 2.71355 1.46531 -4.57736e-15 8.88178e-16 6.66134e-16 
304 1 16.2813 2.71355 2.19797 -6.66134e-16 1.22125e-15 0 
305 1 16.2813 0 2.93063 -7.77156e-16 3.33067e-15 3.77476e-15 
401 1 21.7084 0 0 3.58564e-15 1.55431e-15 5.30131e-15 
404 1 21.7084 2.71355 2.19797 4.19014e-15 1.44329e-15 2.66454e-15 
405 1 21.7084 0 2.93063 4.21885e-15 3.10862e-15 6.38378e-16 
402 1 24.4219 0 0.732657 -4.44089e-15 3.29368e-15 1.76248e-15 
403 1 24.4219 2.71355 1.46531 -4.57736e-15 7.77156e-16 -3.33067e-16 
21 1 0 5.42709 0 3.73992e-15 2.41106e-15 2.9976e-15 
22 1 2.71355 5.42709 0.732657 8.88178e-16 -4.57033e-18 2.88658e-15 
25 1 0 5.42709 2.93063 3.51173e-15 4.14414e-16 -1.9984e-15 
121 1 5.42709 5.42709 0 8.12309e-17 2.6331e-15 5.21805e-15 
125 1 5.42709 5.42709 2.93063 0 3.03392e-16 9.02056e-16 
122 1 8.14064 5.42709 0.732657 -3.09009e-15 2.17474e-16 3.10862e-15 
221 1 10.8542 5.42709 0 -2.22045e-16 2.6331e-15 3.44169e-15 
225 1 10.8542 5.42709 2.93063 -2.22045e-16 8.13475e-17 -4.16334e-16 
222 1 13.5677 5.42709 0.732657 4.19572e-15 -2.26615e-16 2.10942e-15 
321 1 16.2813 5.42709 0 -4.44089e-16 2.18901e-15 6.32827e-15 
322 1 18.9948 5.42709 0.732657 -5.07832e-15 -4.57033e-18 3.44169e-15 
325 1 16.2813 5.42709 2.93063 -6.66134e-16 1.9237e-16 1.77636e-15 
421 1 21.7084 5.42709 0 3.9187e-15 3.07719e-15 3.44169e-15 
425 1 21.7084 5.42709 2.93063 4.44089e-15 8.13475e-17 -9.4369e-16 
422 1 24.4219 5.42709 0.732657 -4.55191e-15 1.0443e-16 4.2466e-15 
23 1 2.71355 8.14064 1.46531 7.77156e-16 -2.68805e-15 1.44329e-15 
24 1 0 8.14064 2.19797 3.10862e-15 -2.68755e-15 2.52576e-15 
41 1 0 10.8542 0 3.29583e-15 4.44089e-16 2.66454e-15 
42 1 2.71355 10.8542 0.732657 7.77156e-16 0 3.33067e-16 
45 1 0 10.8542 2.93063 3.51173e-15 -2.22045e-16 2.22045e-16 
124 1 5.42709 8.14064 2.19797 9.2843e-18 -3.02062e-15 1.22125e-15 
141 1 5.42709 10.8542 0 8.12309e-17 -1.11022e-16 4.996e-15 
145 1 5.42709 10.8542 2.93063 4.44089e-16 0 2.58127e-15 
123 1 8.14064 8.14064 1.46531 -2.59153e-15 -2.57702e-15 4.44089e-16 
142 1 8.14064 10.8542 0.732657 -2.53498e-15 0 9.99201e-16 
224 1 10.8542 8.14064 2.19797 0 -2.13244e-15 2.66454e-15 
241 1 10.8542 10.8542 0 -2.22045e-16 4.44089e-16 3.66374e-15 
245 1 10.8542 10.8542 2.93063 -4.44089e-16 -3.33067e-16 6.66134e-16 
223 1 13.5677 8.14064 1.46531 3.70187e-15 -2.68805e-15 1.66533e-15 
242 1 13.5677 10.8542 0.732657 3.86266e-15 1.11022e-16 0 
323 1 18.9948 8.14064 1.46531 -4.57736e-15 -2.57702e-15 5.55112e-16 
324 1 16.2813 8.14064 2.19797 -2.22045e-16 -2.9096e-15 -6.66134e-16 
341 1 16.2813 10.8542 0 -6.66134e-16 7.77156e-16 6.43929e-15 
342 1 18.9948 10.8542 0.732657 -4.63423e-15 -2.22045e-16 9.99201e-16 
345 1 16.2813 10.8542 2.93063 -5.55112e-16 0 3.21965e-15 
424 1 21.7084 8.14064 2.19797 3.9681e-15 -2.57653e-15 2.44249e-15 
441 1 21.7084 10.8542 0 3.9187e-15 4.44089e-16 3.55271e-15 
445 1 21.7084 10.8542 2.93063 3.88578e-15 -3.33067e-16 2.91434e-16 
423 1 24.4219 8.14064 1.46531 -4.13327e-15 -2.57702e-15 -4.44089e-16 
442 1 24.4219 10.8542 0.732657 -4.44089e-15 -2.22045e-16 1.69309e-15 
43 1 2.71355 13.5677 1.46531 9.99201e-16 4.36663e-15 -1.11022e-16 
44 1 0 13.5677 2.19797 3.21965e-15 3.99898e-15 3.95517e-15 
144 1 5.42709 13.5677 2.19797 -1.00382e-16 4.11e-15 1.33227e-15 
143 1 8.14064 13.5677 1.46531 -2.3696e-15 3.7005e-15 8.88178e-16 
244 1 10.8542 13.5677 2.19797 -1.11022e-16 4.33205e-15 2.88658e-15 
243 1 13.5677 13.5677 1.46531 3.92392e-15 4.14458e-15 1.11022e-15 
343 1 18.9948 13.5677 1.46531 -4.68838e-15 4.03356e-15 2.22045e-16 
344 1 16.2813 13.5677 2.19797 -5.55112e-16 4.22103e-15 0 
444 1 21.7084 13.5677 2.19797 4.07912e-15 3.88796e-15 2.88658e-15 
443 1 24.4219 13.5677 1.46531 -4.35531e-15 4.14458e-15 -9.99201e-16 
61 1 0 16.2813 0 2.85174e-15 -5.55112e-16 -5.55112e-16 
62 1 2.71355 16.2813 0.732657 7.77156e-16 -4.44089e-16 3.9968e-15 
63 1 2.71355 18.9948 1.46531 6.66134e-16 -5.0974e-15 8.88178e-16 
64 1 0 18.9948 2.19797 3.55271e-15 -4.78439e-15 2.23432e-15 
65 1 0 16.2813 2.93063 3.62275e-15 -6.66134e-16 -2.33147e-15 
161 1 5.42709 16.2813 0 3.03276e-16 -6.66134e-16 2.22045e-15 
164 1 5.42709 18.9948 2.19797 -1.00382e-16 -5.22848e-15 3.33067e-16 
165 1 5.42709 16.2813 2.93063 2.22045e-16 -5.55112e-16 1.11022e-16 
162 1 8.14064 16.2813 0.732657 -2.86816e-15 -4.44089e-16 3.44169e-15 
163 1 8.14064 18.9948 1.46531 -2.25857e-15 -4.43126e-15 8.88178e-16 
261 1 10.8542 16.2813 0 2.22045e-16 -1.11022e-15 2.22045e-16 
264 1 10.8542 18.9948 2.19797 -2.22045e-16 -4.89542e-15 2.10942e-15 
265 1 10.8542 16.2813 2.93063 -5.55112e-16 -7.77156e-16 -1.48492e-15 
262 1 13.5677 16.2813 0.732657 3.97368e-15 -6.66134e-16 2.77556e-15 
263 1 13.5677 18.9948 1.46531 3.81289e-15 -4.76433e-15 1.77636e-15 
361 1 16.2813 16.2813 0 -6.66134e-16 -8.88178e-16 3.10862e-15 
362 1 18.9948 16.2813 0.732657 -4.41219e-15 -6.66134e-16 3.66374e-15 
363 1 18.9948 18.9948 1.46531 -4.35531e-15 -4.43126e-15 9.99201e-16 
364 1 16.2813 18.9948 2.19797 -5.55112e-16 -4.67337e-15 -5.55112e-16 
365 1 16.2813 16.2813 2.93063 -2.22045e-16 -8.88178e-16 4.44089e-16 
461 1 21.7084 16.2813 0 3.36359e-15 -6.66134e-16 -1.11022e-16 
464 1 21.7084 18.9948 2.19797 3.74605e-15 -4.45133e-15 1.77636e-15 
465 1 21.7084 16.2813 2.93063 4.21885e-15 -4.44089e-16 -1.84575e-15 
462 1 24.4219 16.2813 0.732657 -4.10783e-15 -7.77156e-16 4.85723e-15 
463 1 24.4219 18.9948 1.46531 -4.24429e-15 -4.43126e-15 -3.33067e-16 
81 1 0 21.7084 0 3.29583e-15 5.64415e-15 2.77556e-15 
82 1 2.71355 21.7084 0.732657 8.88178e-16 4.22344e-15 7.77156e-16 
85 1 0 21.7084 2.93063 3.4007e-15 4.39198e-15 -1.11022e-16 
181 1 5.42709 21.7084 0 1.92253e-16 5.31108e-15 5.10703e-15 
185 1 5.42709 21.7084 2.93063 2.22045e-16 4.16993e-15 2.67841e-15 
182 1 8.14064 21.7084 0.732657 -2.75702e-15 4.5565e-15 1.22125e-15 
281 1 10.8542 21.7084 0 -2.22045e-16 5.08904e-15 3.21965e-15 
285 1 10.8542 21.7084 2.93063 0 4.05891e-15 1.01308e-15 
282 1 13.5677 21.7084 0.732657 3.86266e-15 3.89037e-15 5.55112e-16 
381 1 16.2813 21.7084 0 -6.66134e-16 5.53313e-15 6.32827e-15 
382 1 18.9948 21.7084 0.732657 -4.63423e-15 3.89037e-15 6.66134e-16 
385 1 16.2813 21.7084 2.93063 -7.77156e-16 4.16993e-15 3.66374e-15 
481 1 21.7084 21.7084 0 3.9187e-15 5.53313e-15 3.10862e-15 
485 1 21.7084 21.7084 2.93063 4.44089e-15 4.16993e-15 7.21645e-16 
482 1 24.4219 21.7084 0.732657 -4.44089e-15 3.88181e-15 1.80411e-15 
83 1 2.71355 24.4219 1.46531 6.66134e-16 -4.77396e-15 2.16493e-15 
84 1 0 24.4219 2.19797 3.21965e-15 -5.00644e-15 1.22125e-15 
184 1 5.42709 24.4219 2.19797 2.32685e-16 -4.56235e-15 -8.88178e-16 
183 1 8.14064 24.4219 1.46531 -2.14755e-15 -4.77396e-15 2.1233e-15 
284 1 10.8542 24.4219 2.19797 -4.44089e-16 -4.78439e-15 7.77156e-16 
283 1 13.5677 24.4219 1.46531 3.81289e-15 -4.21885e-15 2.9976e-15 
383 1 18.9948 24.4219 1.46531 -4.46634e-15 -4.44089e-15 2.26208e-15 
384 1 16.2813 24.4219 2.19797 -3.33067e-16 -4.78439e-15 -1.66533e-15 
484 1 21.7084 24.4219 2.19797 3.85707e-15 -5.00644e-15 4.44089e-16 
483 1 24.4219 24.4219 1.46531 -4.35531e-15 -4.44089e-15 1.02696e-15 
6 1 2.71355 0 3.66329 7.77156e-16 3.28956e-15 1.11022e-16 
7 1 2.71355 2.71355 4.39594 8.88178e-16 9.99201e-16 -4.44089e-16 
8 1 0 2.71355 5.1286 2.9976e-15 9.99201e-16 1.66533e-15 
9 1 0 0 5.86126 3.70277e-15 3.55271e-15 -1.19349e-15 
10 1 2.71355 0 6.59392 7.77156e-16 3.59721e-15 -1.9984e-15 
108 1 5.42709 2.71355 5.1286 3.00244e-16 8.88178e-16 -5.55112e-16 
109 1 5.42709 0 5.86126 -1.82229e-16 3.77476e-15 1.60982e-15 
106 1 8.14064 0 3.66329 -3.13267e-15 3.51161e-15 2.22045e-16 
107 1 8.14064 2.71355 4.39594 -2.41844e-15 7.77156e-16 -5.55112e-16 
110 1 8.14064 0 6.59392 -2.39124e-15 3.48619e-15 -2.10942e-15 
208 1 10.8542 2.71355 5.1286 -2.22045e-16 1.55431e-15 1.11022e-16 
209 1 10.8542 0 5.86126 1.11022e-16 2.9976e-15 -7.21645e-16 
206 1 13.5677 0 3.66329 4.18875e-15 3.73365e-15 -3.33067e-16 
207 1 13.5677 2.71355 4.39594 4.35997e-15 7.77156e-16 2.22045e-16 
210 1 13.5677 0 6.59392 3.78279e-15 3.26415e-15 -3.10862e-15 
306 1 18.9948 0 3.66329 -4.61695e-15 3.51161e-15 8.88178e-16 
307 1 18.9948 2.71355 4.39594 -5.15301e-15 5.55112e-16 -5.55112e-16 
308 1 16.2813 2.71355 5.1286 -4.44089e-16 1.33227e-15 -2.10942e-15 
309 1 16.2813 0 5.86126 -6.66134e-16 3.44169e-15 2.10942e-15 
310 1 18.9948 0 6.59392 -4.64239e-15 3.48619e-15 -2.55351e-15 
408 1 21.7084 2.71355 5.1286 4.17286e-15 1.33227e-15 6.66134e-16 
409 1 21.7084 0 5.86126 3.79204e-15 3.33067e-15 -8.04912e-16 
406 1 24.4219 0 3.66329 -4.21885e-15 3.51318e-15 1.3739e-15 
407 1 24.4219 2.71355 4.39594 -4.5979e-15 4.44089e-16 -1.88738e-15 
410 1 24.4219 0 6.59392 -4.10783e-15 3.26415e-15 -1.36002e-15 
26 1 2.71355 5.42709 3.66329 1.22125e-15 0 2.23432e-15 
29 1 0 5.42709 5.86126 2.81459e-15 -1.43962e-16 -3.9968e-15 
30 1 2.71355 5.42709 6.59392 6.66134e-16 3.33067e-16 3.60822e-16 
129 1 5.42709 5.42709 5.86126 7.0595e-16 1.89105e-16 -1.88738e-15 
126 1 8.14064 5.42709 3.66329 -2.68858e-15 -1.11022e-16 2.47025e-15 
130 1 8.14064 5.42709 6.59392 -2.1692e-15 5.55112e-16 4.44089e-16 
229 1 10.8542 5.42709 5.86126 -4.44089e-16 4.11149e-16 -3.55271e-15 
226 1 13.5677 5.42709 3.66329 3.85568e-15 1.11022e-16 1.27676e-15 
230 1 13.5677 5.42709 6.59392 3.44972e-15 0 -5.13478e-16 
326 1 18.9948 5.42709 3.66329 -4.95002e-15 4.44089e-16 2.7478e-15 
329 1 16.2813 5.42709 5.86126 -4.44089e-16 1.89105e-16 -8.88178e-16 
330 1 18.9948 5.42709 6.59392 -4.30933e-15 6.66134e-16 -1.52656e-16 
429 1 21.7084 5.42709 5.86126 4.23613e-15 5.22172e-16 -3.44169e-15 
426 1 24.4219 5.42709 3.66329 -4.55191e-15 1.09448e-16 3.69149e-15 
430 1 24.4219 5.42709 6.59392 -4.32987e-15 4.44089e-16 1.27676e-15 
27 1 2.71355 8.14064 4.39594 9.99201e-16 -4.49423e-16 -1.33227e-15 
28 1 0 8.14064 5.1286 3.33067e-15 -2.43957e-15 1.36002e-15 
46 1 2.71355 10.8542 3.66329 4.44089e-16 3.33067e-16 2.77556e-15 
49 1 0 10.8542 5.86126 3.25868e-15 -1.11022e-16 -1.9984e-15 
50 1 2.71355 10.8542 6.59392 1.33227e-15 -4.44089e-16 -1.88738e-15 
128 1 5.42709 8.14064 5.1286 7.81989e-17 -1.99548e-15 -1.33227e-15 
149 1 5.42709 10.8542 5.86126 3.98157e-17 -2.22045e-16 2.22045e-16 
127 1 8.14064 8.14064 4.39594 -2.64049e-15 -5.33334e-18 -1.11022e-15 
146 1 8.14064 10.8542 3.66329 -2.46654e-15 3.33067e-16 3.21965e-15 
150 1 8.14064 10.8542 6.59392 -2.1692e-15 -4.44089e-16 -2.17881e-15 
228 1 10.8542 8.14064 5.1286 0 -2.43957e-15 3.33067e-16 
249 1 10.8542 10.8542 5.86126 -4.44089e-16 -5.55112e-16 -1.44329e-15 
227 1 13.5677 8.14064 4.39594 4.35997e-15 -3.384e-16 -6.66134e-16 
246 1 13.5677 10.8542 3.66329 4.07772e-15 4.44089e-16 2.23432e-15 
250 1 13.5677 10.8542 6.59392 3.78279e-15 0 -2.59515e-15 
327 1 18.9948 8.14064 4.39594 -5.15301e-15 -3.384e-16 -1.33227e-15 
328 1 16.2813 8.14064 5.1286 -3.33067e-16 -2.62206e-15 -2.22045e-15 
346 1 18.9948 10.8542 3.66329 -4.839e-15 0 3.27516e-15 
349 1 16.2813 10.8542 5.86126 -3.33067e-16 -2.22045e-16 1.9984e-15 
350 1 18.9948 10.8542 6.59392 -4.97546e-15 -3.33067e-16 -2.09555e-15 
428 1 21.7084 8.14064 5.1286 4.17286e-15 -2.55059e-15 3.33067e-16 
449 1 21.7084 10.8542 5.86126 4.01408e-15 -2.22045e-16 -1.66533e-15 
427 1 24.4219 8.14064 4.39594 -4.93097e-15 -3.384e-16 -2.55351e-15 
446 1 24.4219 10.8542 3.66329 -4.10783e-15 2.22045e-16 4.48253e-15 
450 1 24.4219 10.8542 6.59392 -4.32987e-15 -3.33067e-16 -6.52256e-16 
47 1 2.71355 13.5677 4.39594 6.66134e-16 1.32884e-15 -2.77556e-15 
48 1 0 13.5677 5.1286 3.10862e-15 4.37493e-15 1.80411e-15 
148 1 5.42709 13.5677 5.1286 6.3331e-16 3.33765e-15 -2.22045e-16 
147 1 8.14064 13.5677 4.39594 -2.64049e-15 8.84756e-16 -2.66454e-15 
248 1 10.8542 13.5677 5.1286 -4.44089e-16 3.89276e-15 7.77156e-16 
247 1 13.5677 13.5677 4.39594 4.47099e-15 8.84756e-16 -1.44329e-15 
347 1 18.9948 13.5677 4.39594 -4.48688e-15 1.32884e-15 -2.44249e-15 
348 1 16.2813 13.5677 5.1286 -8.88178e-16 3.78174e-15 -1.77636e-15 
448 1 21.7084 13.5677 5.1286 4.17286e-15 3.67071e-15 1.44329e-15 
447 1 24.4219 13.5677 4.39594 -4.70892e-15 1.32884e-15 -3.55271e-15 
66 1 2.71355 16.2813 3.66329 9.99201e-16 -6.66134e-16 3.10862e-15 
67 1 2.71355 18.9948 4.39594 9.99201e-16 -4.84484e-15 -1.11022e-16 
68 1 0 18.9948 5.1286 3.44169e-15 -4.90079e-15 1.249e-15 
69 1 0 16.2813 5.86126 2.92562e-15 -8.88178e-16 -5.10703e-15 
70 1 2.71355 16.2813 6.59392 9.99201e-16 -2.22045e-16 1.11022e-15 
168 1 5.42709 18.9948 5.1286 7.81989e-17 -5.1243e-15 -1.22125e-15 
169 1 5.42709 16.2813 5.86126 2.6186e-16 -2.22045e-16 -3.10862e-15 
166 1 8.14064 16.2813 3.66329 -2.24449e-15 -2.22045e-16 3.10862e-15 
167 1 8.14064 18.9948 4.39594 -2.41844e-15 -5.06689e-15 2.22045e-16 
170 1 8.14064 16.2813 6.59392 -2.39124e-15 -3.33067e-16 7.77156e-16 
268 1 10.8542 18.9948 5.1286 -3.33067e-16 -4.90226e-15 4.44089e-16 
269 1 10.8542 16.2813 5.86126 -2.22045e-16 -4.44089e-16 -4.44089e-15 
266 1 13.5677 16.2813 3.66329 3.52261e-15 -4.44089e-16 2.55351e-15 
267 1 13.5677 18.9948 4.39594 4.0269e-15 -4.51178e-15 5.55112e-16 
270 1 13.5677 16.2813 6.59392 3.67177e-15 -6.66134e-16 -3.33067e-16 
366 1 18.9948 16.2813 3.66329 -5.06104e-15 -1.11022e-16 3.33067e-15 
367 1 18.9948 18.9948 4.39594 -4.81994e-15 -5.17791e-15 -4.44089e-16 
368 1 16.2813 18.9948 5.1286 -4.44089e-16 -4.56919e-15 -2.55351e-15 
369 1 16.2813 16.2813 5.86126 -2.22045e-16 -5.55112e-16 -1.44329e-15 
370 1 18.9948 16.2813 6.59392 -4.42035e-15 -2.22045e-16 1.55431e-15 
468 1 21.7084 18.9948 5.1286 4.17286e-15 -4.90226e-15 7.77156e-16 
469 1 21.7084 16.2813 5.86126 3.68101e-15 -5.55112e-16 -4.44089e-15 
466 1 24.4219 16.2813 3.66329 -4.55191e-15 -1.11022e-16 4.70457e-15 
467 1 24.4219 18.9948 4.39594 -4.81994e-15 -5.28893e-15 -1.55431e-15 
470 1 24.4219 16.2813 6.59392 -4.10783e-15 -2.22045e-16 2.15106e-15 
86 1 2.71355 21.7084 3.66329 7.77156e-16 4.44089e-15 1.94289e-16 
89 1 0 21.7084 5.86126 3.25868e-15 4.08728e-15 -2.44249e-15 
90 1 2.71355 21.7084 6.59392 8.88178e-16 3.88578e-15 -2.08167e-15 
189 1 5.42709 21.7084 5.86126 2.6186e-16 4.30933e-15 -2.22045e-16 
186 1 8.14064 21.7084 3.66329 -2.57756e-15 4.44089e-15 3.19189e-16 
190 1 8.14064 21.7084 6.59392 -2.28022e-15 4.21885e-15 -1.91513e-15 
289 1 10.8542 21.7084 5.86126 -1.11022e-16 3.86524e-15 -1.11022e-15 
286 1 13.5677 21.7084 3.66329 4.18875e-15 4.55191e-15 -2.91434e-16 
290 1 13.5677 21.7084 6.59392 3.78279e-15 4.44089e-15 -3.38618e-15 
386 1 18.9948 21.7084 3.66329 -5.06104e-15 4.21885e-15 7.77156e-16 
389 1 16.2813 21.7084 5.86126 -5.55112e-16 3.64319e-15 1.77636e-15 
390 1 18.9948 21.7084 6.59392 -4.75342e-15 4.21885e-15 -1.67921e-15 
489 1 21.7084 21.7084 5.86126 4.01408e-15 3.97626e-15 -1.55431e-15 
486 1 24.4219 21.7084 3.66329 -4.66294e-15 4.22031e-15 1.83187e-15 
490 1 24.4219 21.7084 6.59392 -4.32987e-15 4.10783e-15 -5.55112e-16 
87 1 2.71355 24.4219 4.39594 9.99201e-16 -4.32987e-15 8.04912e-16 
88 1 0 24.4219 5.1286 3.44169e-15 -4.67875e-15 1.38778e-16 
188 1 5.42709 24.4219 5.1286 7.81989e-17 -5.1243e-15 -2.55351e-15 
187 1 8.14064 24.4219 4.39594 -2.41844e-15 -4.44089e-15 8.32667e-16 
288 1 10.8542 24.4219 5.1286 -3.33067e-16 -4.56919e-15 -6.66134e-16 
287 1 13.5677 24.4219 4.39594 4.0269e-15 -5.10703e-15 1.79023e-15 
387 1 18.9948 24.4219 4.39594 -4.81994e-15 -4.32987e-15 7.77156e-16 
388 1 16.2813 24.4219 5.1286 -4.44089e-16 -4.56919e-15 -3.88578e-15 
488 1 21.7084 24.4219 5.1286 4.17286e-15 -4.79124e-15 -4.44089e-16 
487 1 24.4219 24.4219 4.39594 -4.81994e-15 -3.9968e-15 -5.13478e-16 
11 1 2.71355 2.71355 7.32657 1.11022e-15 7.77156e-16 6.80012e-16 
12 1 0 2.71355 8.05923 3.55271e-15 4.44089e-16 3.41394e-15 
13 1 0 0 8.79189 3.09799e-15 2.66454e-15 -1.22125e-15 
14 1 2.71355 0 9.52455 6.66134e-16 1.32226e-15 -6.99441e-15 
15 1 2.71355 2.71355 10.2572 6.66134e-16 6.66134e-16 3.21965e-15 
112 1 5.42709 2.71355 8.05923 7.96566e-17 4.44089e-16 3.33067e-16 
113 1 5.42709 0 8.79189 1.4938e-16 2.77556e-15 3.60822e-16 
111 1 8.14064 2.71355 7.32657 -2.55351e-15 7.77156e-16 3.19189e-16 
114 1 8.14064 0 9.52455 -5.22288e-16 1.65532e-15 -7.32747e-15 
115 1 8.14064 2.71355 10.2572 2.22045e-16 5.55112e-16 4.05231e-15 
212 1 10.8542 2.71355 8.05923 -4.44089e-16 4.44089e-16 1.77636e-15 
213 1 10.8542 0 8.79189 6.66134e-16 2.55351e-15 1.13798e-15 
211 1 13.5677 2.71355 7.32657 3.9968e-15 4.44089e-16 1.22125e-15 
214 1 13.5677 0 9.52455 8.08314e-16 1.76635e-15 -8.77076e-15 
215 1 13.5677 2.71355 10.2572 9.99201e-16 5.55112e-16 4.94049e-15 
311 1 18.9948 2.71355 7.32657 -4.66294e-15 6.66134e-16 3.60822e-16 
312 1 16.2813 2.71355 8.05923 -4.44089e-16 6.66134e-16 -6.66134e-16 
313 1 16.2813 0 8.79189 -6.66134e-16 2.66454e-15 1.27676e-15 
314 1 18.9948 0 9.52455 -3.6719e-15 1.5443e-15 -6.99441e-15 
315 1 18.9948 2.71355 10.2572 -3.88578e-15 6.66134e-16 3.35842e-15 
412 1 21.7084 2.71355 8.05923 3.44788e-15 2.22045e-16 1.66533e-15 
413 1 21.7084 0 8.79189 3.18475e-15 2.88658e-15 -1.80411e-16 
411 1 24.4219 2.71355 7.32657 -4.66294e-15 1.11022e-15 -9.71445e-16 
414 1 24.4219 0 9.52455 -3.10862e-15 1.5443e-15 -5.71765e-15 
415 1 24.4219 2.71355 10.2572 -2.44249e-15 6.66134e-16 2.44249e-15 
33 1 0 5.42709 8.79189 2.6539e-15 1.70666e-16 -2.44249e-15 
34 1 2.71355 5.42709 9.52455 2.22045e-16 2.71158e-15 -4.996e-15 
133 1 5.42709 5.42709 8.79189 8.15514e-16 5.96439e-17 -1.33227e-15 
134 1 8.14064 5.42709 9.52455 -5.22288e-16 2.60055e-15 -5.9952e-15 
233 1 10.8542 5.42709 8.79189 3.33067e-16 3.92711e-16 -1.11022e-15 
234 1 13.5677 5.42709 9.52455 1.14138e-15 2.93362e-15 -6.43929e-15 
333 1 16.2813 5.42709 8.79189 -7.77156e-16 -1.62401e-16 -1.11022e-16 
334 1 18.9948 5.42709 9.52455 -3.56088e-15 2.48953e-15 -5.55112e-15 
433 1 21.7084 5.42709 8.79189 2.9627e-15 1.70666e-16 -2.55351e-15 
434 1 24.4219 5.42709 9.52455 -2.66454e-15 2.49313e-15 -3.747e-15 
31 1 2.71355 8.14064 7.32657 8.88178e-16 -2.34888e-15 8.60423e-16 
32 1 0 8.14064 8.05923 3.55271e-15 -3.26714e-16 4.03844e-15 
35 1 2.71355 8.14064 10.2572 5.55112e-16 -2.50647e-15 1.69309e-15 
53 1 0 10.8542 8.79189 2.76493e-15 0 -3.10862e-15 
54 1 2.71355 10.8542 9.52455 3.33067e-16 1.11022e-16 -4.77396e-15 
132 1 5.42709 8.14064 8.05923 4.11149e-16 -5.48759e-16 1.44329e-15 
153 1 5.42709 10.8542 8.79189 3.83581e-17 2.22045e-16 -1.9984e-15 
131 1 8.14064 8.14064 7.32657 -3.10862e-15 -2.34888e-15 6.80012e-16 
135 1 8.14064 8.14064 10.2572 1.11022e-16 -2.83954e-15 2.84495e-15 
154 1 8.14064 10.8542 9.52455 -7.81989e-17 5.55112e-16 -5.88418e-15 
232 1 10.8542 8.14064 8.05923 -2.22045e-16 -8.81825e-16 3.10862e-15 
253 1 10.8542 10.8542 8.79189 1.11022e-16 3.33067e-16 -1.22125e-15 
231 1 13.5677 8.14064 7.32657 3.88578e-15 -2.01582e-15 1.85962e-15 
235 1 13.5677 8.14064 10.2572 8.88178e-16 -2.95056e-15 3.35842e-15 
254 1 13.5677 10.8542 9.52455 1.2524e-15 0 -6.55032e-15 
331 1 18.9948 8.14064 7.32657 -4.66294e-15 -2.12684e-15 1.52656e-16 
332 1 16.2813 8.14064 8.05923 -3.33067e-16 -7.00466e-16 1.11022e-16 
335 1 18.9948 8.14064 10.2572 -3.66374e-15 -2.72852e-15 2.2482e-15 
353 1 16.2813 10.8542 8.79189 -9.99201e-16 0 -7.77156e-16 
354 1 18.9948 10.8542 9.52455 -2.89474e-15 2.22045e-16 -5.32907e-15 
432 1 21.7084 8.14064 8.05923 3.75422e-15 -1.04669e-16 2.88658e-15 
453 1 21.7084 10.8542 8.79189 2.85168e-15 3.33067e-16 -2.44249e-15 
431 1 24.4219 8.14064 7.32657 -4.66294e-15 -2.34888e-15 -1.04083e-15 
435 1 24.4219 8.14064 10.2572 -2.88658e-15 -2.72852e-15 1.36002e-15 
454 1 24.4219 10.8542 9.52455 -2.77556e-15 2.22045e-16 -3.85803e-15 
51 1 2.71355 13.5677 7.32657 1.22125e-15 3.71447e-15 2.35922e-16 
52 1 0 13.5677 8.05923 3.10862e-15 1.05793e-15 4.55191e-15 
55 1 2.71355 13.5677 10.2572 4.44089e-16 4.86199e-15 5.96745e-16 
152 1 5.42709 13.5677 8.05923 3.01701e-16 1.09726e-15 2.66454e-15 
151 1 8.14064 13.5677 7.32657 -2.88658e-15 3.38141e-15 -1.52656e-16 
155 1 8.14064 13.5677 10.2572 1.11022e-16 4.63994e-15 5.82867e-16 
252 1 10.8542 13.5677 8.05923 0 1.43033e-15 3.9968e-15 
251 1 13.5677 13.5677 7.32657 3.9968e-15 3.93652e-15 6.66134e-16 
255 1 13.5677 13.5677 10.2572 1.11022e-15 4.86199e-15 1.88738e-15 
351 1 18.9948 13.5677 7.32657 -4.66294e-15 3.49243e-15 -5.82867e-16 
352 1 16.2813 13.5677 8.05923 -6.66134e-16 1.3193e-15 9.99201e-16 
355 1 18.9948 13.5677 10.2572 -3.66374e-15 4.75097e-15 6.38378e-16 
452 1 21.7084 13.5677 8.05923 3.89197e-15 1.20828e-15 3.9968e-15 
451 1 24.4219 13.5677 7.32657 -4.77396e-15 3.38141e-15 -1.66533e-15 
455 1 24.4219 13.5677 10.2572 -2.9976e-15 4.75097e-15 -2.498e-16 
71 1 2.71355 18.9948 7.32657 1.11022e-15 -4.68085e-15 6.93889e-16 
72 1 0 18.9948 8.05923 3.21965e-15 -4.09074e-15 3.05311e-15 
73 1 0 16.2813 8.79189 2.45837e-15 -2.22045e-16 -2.9976e-15 
74 1 2.71355 16.2813 9.52455 6.66134e-16 -3.33067e-16 -1.33227e-15 
75 1 2.71355 18.9948 10.2572 6.66134e-16 -6.41464e-15 9.15934e-16 
172 1 5.42709 18.9948 8.05923 1.90679e-16 -4.11747e-15 4.44089e-16 
173 1 5.42709 16.2813 8.79189 2.61977e-16 -5.55112e-16 -1.33227e-15 
171 1 8.14064 18.9948 7.32657 -2.66454e-15 -4.56983e-15 4.02456e-16 
174 1 8.14064 16.2813 9.52455 -7.81989e-17 -2.22045e-16 -2.22045e-15 
175 1 8.14064 18.9948 10.2572 0 -5.97055e-15 1.8735e-15 
272 1 10.8542 18.9948 8.05923 -1.11022e-16 -3.67339e-15 2.55351e-15 
273 1 10.8542 16.2813 8.79189 0 -3.33067e-16 -1.44329e-15 
271 1 13.5677 18.9948 7.32657 3.66374e-15 -4.56983e-15 1.38778e-15 
274 1 13.5677 16.2813 9.52455 8.08314e-16 -6.66134e-16 -2.88658e-15 
275 1 13.5677 18.9948 10.2572 9.99201e-16 -5.97055e-15 3.30291e-15 
371 1 18.9948 18.9948 7.32657 -4.88498e-15 -4.9029e-15 5.55112e-16 
372 1 16.2813 18.9948 8.05923 -4.44089e-16 -3.45134e-15 -3.33067e-16 
373 1 16.2813 16.2813 8.79189 -3.33067e-16 -3.33067e-16 -1.11022e-15 
374 1 18.9948 16.2813 9.52455 -3.22781e-15 -1.11022e-16 -2.44249e-15 
375 1 18.9948 18.9948 10.2572 -3.88578e-15 -6.08157e-15 1.36002e-15 
472 1 21.7084 18.9948 8.05923 3.89197e-15 -4.2285e-15 1.77636e-15 
473 1 21.7084 16.2813 8.79189 2.98944e-15 -6.66134e-16 -2.9976e-15 
471 1 24.4219 18.9948 7.32657 -4.55191e-15 -4.56983e-15 -6.10623e-16 
474 1 24.4219 16.2813 9.52455 -2.88658e-15 -1.11022e-16 -8.74301e-16 
475 1 24.4219 18.9948 10.2572 -2.77556e-15 -6.41464e-15 4.996e-16 
93 1 0 21.7084 8.79189 2.87595e-15 3.2128e-15 -7.77156e-16 
94 1 2.71355 21.7084 9.52455 4.44089e-16 4.90964e-15 -4.44089e-15 
193 1 5.42709 21.7084 8.79189 4.82447e-16 3.2128e-15 5.55112e-16 
194 1 8.14064 21.7084 9.52455 2.54868e-16 4.6876e-15 -5.77316e-15 
293 1 10.8542 21.7084 8.79189 0 2.76871e-15 5.55112e-16 
294 1 13.5677 21.7084 9.52455 1.14138e-15 4.79862e-15 -6.32827e-15 
393 1 16.2813 21.7084 8.79189 -4.44089e-16 3.10178e-15 1.11022e-15 
394 1 18.9948 21.7084 9.52455 -3.78292e-15 4.79862e-15 -5.10703e-15 
493 1 21.7084 21.7084 8.79189 2.74066e-15 3.32382e-15 -4.44089e-16 
494 1 24.4219 21.7084 9.52455 -3.10862e-15 5.05595e-15 -3.83027e-15 
91 1 2.71355 24.4219 7.32657 1.22125e-15 -4.21885e-15 1.63758e-15 
92 1 0 24.4219 8.05923 2.66454e-15 -3.20256e-15 2.16493e-15 
95 1 2.71355 24.4219 10.2572 6.66134e-16 -5.55112e-15 2.63678e-15 
192 1 5.42709 24.4219 8.05923 6.34768e-16 -2.78521e-15 -4.44089e-16 
191 1 8.14064 24.4219 7.32657 -2.55351e-15 -4.32987e-15 1.44329e-15 
195 1 8.14064 24.4219 10.2572 2.22045e-16 -5.88418e-15 3.45557e-15 
292 1 10.8542 24.4219 8.05923 0 -3.2293e-15 1.33227e-15 
291 1 13.5677 24.4219 7.32657 3.77476e-15 -4.44089e-15 2.52576e-15 
295 1 13.5677 24.4219 10.2572 1.11022e-15 -5.55112e-15 4.52416e-15 
391 1 18.9948 24.4219 7.32657 -4.77396e-15 -4.55191e-15 1.81799e-15 
392 1 16.2813 24.4219 8.05923 -7.77156e-16 -3.2293e-15 -1.22125e-15 
395 1 18.9948 24.4219 10.2572 -3.9968e-15 -5.77316e-15 2.94209e-15 
492 1 21.7084 24.4219 8.05923 3.78095e-15 -3.34032e-15 7.77156e-16 
491 1 24.4219 24.4219 7.32657 -4.44089e-15 -4.44089e-15 6.66134e-16 
495 1 24.4219 24.4219 10.2572 -2.77556e-15 -5.66214e-15 1.97065e-15 
16 1 0 2.71355 10.9899 2.10942e-15 4.44089e-16 -5.07927e-15 
17 1 0 0 11.7225 2.26733e-15 1.11022e-15 3.6221e-15 
18 1 2.71355 0 12.4552 6.66134e-16 1.47049e-15 -5.66214e-15 
19 1 2.71355 2.71355 13.1878 6.66134e-16 4.44089e-16 4.55191e-15 
20 1 0 2.71355 13.9205 3.21965e-15 6.66134e-16 -4.13558e-15 
116 1 5.42709 2.71355 10.9899 -3.99324e-17 4.44089e-16 -6.50868e-15 
117 1 5.42709 0 11.7225 2.54985e-16 1.11022e-15 5.17641e-15 
120 1 5.42709 2.71355 13.9205 -1.51578e-16 5.55112e-16 -5.68989e-15 
118 1 8.14064 0 12.4552 -4.24727e-17 1.13742e-15 -6.32827e-15 
119 1 8.14064 2.71355 13.1878 -5.01015e-17 5.55112e-16 5.21805e-15 
216 1 10.8542 2.71355 10.9899 2.22045e-16 2.22045e-16 -6.53644e-15 
217 1 10.8542 0 11.7225 0 1.22125e-15 6.05072e-15 
220 1 10.8542 2.71355 13.9205 0 2.22045e-16 -6.17562e-15 
218 1 13.5677 0 12.4552 1.21427e-15 1.47049e-15 -6.99441e-15 
219 1 13.5677 2.71355 13.1878 8.80145e-16 3.33067e-16 6.10623e-15 
316 1 16.2813 2.71355 10.9899 -6.66134e-16 3.33067e-16 -7.21645e-15 
317 1 16.2813 0 11.7225 -7.77156e-16 1.44329e-15 6.41154e-15 
318 1 18.9948 0 12.4552 -3.31339e-15 1.58151e-15 -5.55112e-15 
319 1 18.9948 2.71355 13.1878 -3.90632e-15 -1.11022e-16 4.77396e-15 
320 1 16.2813 2.71355 13.9205 -4.44089e-16 4.44089e-16 -6.81399e-15 
416 1 21.7084 2.71355 10.9899 2.6727e-15 4.44089e-16 -5.16254e-15 
417 1 21.7084 0 11.7225 2.68508e-15 1.33227e-15 4.38538e-15 
420 1 21.7084 2.71355 13.9205 3.37095e-15 2.22045e-16 -4.1217e-15 
418 1 24.4219 0 12.4552 -2.9976e-15 1.35947e-15 -4.46865e-15 
419 1 24.4219 2.71355 13.1878 -3.12917e-15 4.44089e-16 3.66374e-15 
37 1 0 5.42709 11.7225 2.48937e-15 2.50647e-15 2.33147e-15 
38 1 2.71355 5.42709 12.4552 4.44089e-16 2.5979e-15 -3.88578e-15 
137 1 5.42709 5.42709 11.7225 2.54985e-16 2.83954e-15 3.66374e-15 
138 1 8.14064 5.42709 12.4552 -1.53495e-16 2.81994e-15 -4.88498e-15 
237 1 10.8542 5.42709 11.7225 1.11022e-16 2.72852e-15 4.10783e-15 
238 1 13.5677 5.42709 12.4552 9.92224e-16 2.70892e-15 -5.44009e-15 
337 1 16.2813 5.42709 11.7225 -4.44089e-16 2.06238e-15 4.77396e-15 
338 1 18.9948 5.42709 12.4552 -3.8685e-15 3.26403e-15 -3.77476e-15 
437 1 21.7084 5.42709 11.7225 3.35121e-15 2.61749e-15 2.66454e-15 
438 1 24.4219 5.42709 12.4552 -3.21965e-15 2.93097e-15 -3.28904e-15 
36 1 0 8.14064 10.9899 2.66454e-15 -2.33147e-15 -3.13638e-15 
39 1 2.71355 8.14064 13.1878 6.66134e-16 -2.37243e-15 2.10942e-15 
40 1 0 8.14064 13.9205 2.55351e-15 -2.55351e-15 -2.8727e-15 
57 1 0 10.8542 11.7225 2.48937e-15 4.44089e-16 2.44249e-15 
58 1 2.71355 10.8542 12.4552 6.66134e-16 3.33067e-16 -3.55271e-15 
136 1 5.42709 8.14064 10.9899 -2.61977e-16 -2.66454e-15 -5.10703e-15 
140 1 5.42709 8.14064 13.9205 1.81489e-16 -2.66454e-15 -4.16334e-15 
157 1 5.42709 10.8542 11.7225 3.294e-17 2.22045e-16 4.55191e-15 
139 1 8.14064 8.14064 13.1878 -1.61124e-16 -2.48345e-15 3.21965e-15 
158 1 8.14064 10.8542 12.4552 -2.64517e-16 1.11022e-16 -4.44089e-15 
236 1 10.8542 8.14064 10.9899 3.33067e-16 -2.44249e-15 -5.07927e-15 
240 1 10.8542 8.14064 13.9205 1.11022e-16 -2.33147e-15 -4.80171e-15 
257 1 10.8542 10.8542 11.7225 4.44089e-16 4.44089e-16 4.55191e-15 
239 1 13.5677 8.14064 13.1878 6.58101e-16 -2.26141e-15 4.21885e-15 
258 1 13.5677 10.8542 12.4552 5.48134e-16 -1.11022e-16 -5.32907e-15 
336 1 16.2813 8.14064 10.9899 -7.77156e-16 -2.22045e-15 -5.82867e-15 
339 1 18.9948 8.14064 13.1878 -3.57326e-15 -2.92754e-15 3.33067e-15 
340 1 16.2813 8.14064 13.9205 -1.11022e-16 -2.33147e-15 -5.20417e-15 
357 1 16.2813 10.8542 11.7225 -7.77156e-16 1.11022e-16 5.10703e-15 
358 1 18.9948 10.8542 12.4552 -3.31339e-15 2.22045e-16 -3.77476e-15 
436 1 21.7084 8.14064 10.9899 2.89474e-15 -2.44249e-15 -3.06699e-15 
440 1 21.7084 8.14064 13.9205 3.25992e-15 -2.77556e-15 -3.27516e-15 
457 1 21.7084 10.8542 11.7225 3.24019e-15 2.22045e-16 2.77556e-15 
439 1 24.4219 8.14064 13.1878 -3.12917e-15 -2.81652e-15 2.22045e-15 
458 1 24.4219 10.8542 12.4552 -3.10862e-15 1.11022e-16 -3.1225e-15 
56 1 0 13.5677 10.9899 2.44249e-15 4.77396e-15 -8.46545e-16 
59 1 2.71355 13.5677 13.1878 4.44089e-16 4.74879e-15 8.88178e-16 
60 1 0 13.5677 13.9205 2.9976e-15 4.66294e-15 -1.6237e-15 
156 1 5.42709 13.5677 10.9899 7.10899e-17 4.55191e-15 -3.46945e-15 
160 1 5.42709 13.5677 13.9205 -4.05558e-17 4.88498e-15 -2.3731e-15 
159 1 8.14064 13.5677 13.1878 1.71943e-16 4.52674e-15 2.10942e-15 
256 1 10.8542 13.5677 10.9899 2.22045e-16 4.44089e-15 -3.19189e-15 
260 1 10.8542 13.5677 13.9205 2.22045e-16 4.88498e-15 -2.88658e-15 
259 1 13.5677 13.5677 13.1878 9.91168e-16 4.74879e-15 2.88658e-15 
356 1 16.2813 13.5677 10.9899 -7.77156e-16 4.77396e-15 -3.66374e-15 
359 1 18.9948 13.5677 13.1878 -3.57326e-15 5.08185e-15 1.44329e-15 
360 1 16.2813 13.5677 13.9205 -7.77156e-16 4.66294e-15 -3.83027e-15 
456 1 21.7084 13.5677 10.9899 2.89474e-15 4.77396e-15 -1.85962e-15 
460 1 21.7084 13.5677 13.9205 2.92686e-15 4.88498e-15 -1.249e-15 
459 1 24.4219 13.5677 13.1878 -2.90712e-15 5.08185e-15 3.33067e-16 
76 1 0 18.9948 10.9899 2.22045e-15 -5.55112e-15 -2.52576e-15 
77 1 0 16.2813 11.7225 2.15631e-15 -9.99201e-16 -1.33227e-15 
78 1 2.71355 16.2813 12.4552 5.55112e-16 -7.77156e-16 -1.22125e-15 
79 1 2.71355 18.9948 13.1878 6.66134e-16 -5.96011e-15 2.33147e-15 