thermo_style    custom step atoms pe ke etotal press vol lx ly lz
thermo_modify   line one format float %.16g
fix             1 all box/relax iso 0.0 vmax 0.0001
min_style       cg
min_modify      line quadratic
minimize        0.0 0.0 5000 5000
WARNING: Resetting reneighboring criteria during minimization (../min.cpp:168)
Neighbor list info ...
  2 neighbor list requests
  update every 1 steps, delay 0 steps, check yes
  master list distance cutoff = 6.8
Memory usage per processor = 10.011 Mbytes
Step Atoms PotEng KinEng TotEng Press Volume Lx Ly Lz 
       0      500 -2034.739744750432 0 -2034.739744750432 -174326.0565741413 10789.60224863959 27.13546230735075 27.13546230735075 14.65314964596941 
    2834      500 -2170.374238273171 0 -2170.374238273171 -1.903765966599867e-10 8770.380272915099 25.32453937702816 25.32453937702816 13.67525126359519 
Loop time of 16.5141 on 1 procs for 2834 steps with 500 atoms

Minimization stats:
  Stopping criterion = max force evaluations
  Energy initial, next-to-last, final = 
        -2034.73974475     -2170.37423827     -2170.37423827
  Force two-norm initial, final = 3521.91 3.46955e-12
  Force max component initial, final = 3521.91 3.34995e-12
  Final line search alpha, max atom move = 1 3.34995e-12
  Iterations, force evaluations = 2834 5001

Pair  time (%) = 16.2298 (98.2782)
Neigh time (%) = 0.00312829 (0.0189431)
Comm  time (%) = 0.0461874 (0.279684)
Outpt time (%) = 0 (0)
Other time (%) = 0.235025 (1.42317)

Nlocal:    500 ave 500 max 500 min
Histogram: 1 0 0 0 0 0 0 0 0 0
Nghost:    1701 ave 1701 max 1701 min
Histogram: 1 0 0 0 0 0 0 0 0 0
Neighs:    19000 ave 19000 max 19000 min
Histogram: 1 0 0 0 0 0 0 0 0 0
FullNghs:  38000 ave 38000 max 38000 min
Histogram: 1 0 0 0 0 0 0 0 0 0

Total # of neighbors = 38000
Ave neighs/atom = 76
Neighbor list builds = 2
Dangerous builds = 0
