LAMMPS (10 Feb 2015)
units           metal
boundary        p p p
atom_style      atomic
read_data       datafile
  orthogonal box = (0 0 0) to (27.1355 27.1355 14.6531)
  1 by 1 by 1 MPI processor grid
  reading atoms ...
  500 atoms
pair_style      meam
pair_coeff      * *  /Users/masud/MD/potentials/library_Si.meam Si /Users/masud/MD/potentials/Si.meam  Si
neighbor        2.0 bin
neigh_modify    delay 10
dump            1 all custom 100000 dump id type x y z fx fy fz
log             log
