 
 64 atoms 
 
 1 atom types
 0.00000000000000000000 10.85418492294030023970 xlo xhi
 0.00000000000000000000 10.85420663128843798972 ylo yhi
 0.00000000000000000000 10.85411979798272064102 zlo zhi
 0.00000000000000066463 0.00000000000000066463 0.04341665285854390960 xy xz yz
 
 Atoms 
 
	1	1	0.00000000000000000000	0.00000000000000000000	0.00000000000000000000
	2	1	2.71354623073507505993	2.71354080365889505089	-0.00542707075318713764
	3	1	2.71354623073507505993	0.00542708160731818819	2.71352994951738812901
	4	1	0.00000000000000033165	2.71896788526621335791	2.70810287876420119346
	5	1	1.35677311536753752996	1.35948394263310667895	1.35405143938210059673
	6	1	4.07031934610261281193	4.07302474629200172984	1.34862436862891343914
	7	1	4.07031934610261281193	1.36491102424042476393	4.06758138889948916983
	8	1	1.35677311536753797405	4.07845182789932003686	4.06215431814630179019
	9	1	0.00000000000000033165	0.01085416321463637639	5.42705989903477625802
	10	1	2.71354623073507550401	2.72439496687353122084	5.42163282828158976656
	11	1	2.71354623073507550401	0.01628124482195456718	8.14058984855216571930
	12	1	0.00000000000000066330	2.72982204848084952786	8.13516277779897833966
	13	1	1.35677311536753797405	1.37033810584774307095	6.78111133841687685475
	14	1	4.07031934610261281193	4.08387890950663834388	6.77568426766368947511
	15	1	4.07031934610261370011	1.37576518745506115593	9.49464128793426809239
	16	1	1.35677311536753841814	4.08930599111395665091	9.48921421718108071275
	17	1	0.00000000000000033165	5.42708160731779010177	-0.01085414150637427529
	18	1	2.71354623073507550401	8.14062241097668604084	-0.01628121225956141380
	19	1	2.71354623073507550401	5.43250868892510840880	2.70267580801101381383
	20	1	0.00000000000000066330	8.14604949258400345968	2.69724873725782687828
	21	1	1.35677311536753797405	6.78656554995089589255	1.34319729787572628155
	22	1	4.07031934610261370011	9.50010635360979271979	1.33777022712253912395
	23	1	4.07031934610261281193	6.79199263155821419957	4.05672724739311441056
	24	1	1.35677311536753841814	9.50553343521711013864	4.05130017663992791910
	25	1	0.00000000000000066330	5.43793577053242671582	5.41620575752840238692
	26	1	2.71354623073507594810	8.15147657419132265488	5.41077868677521500729
	27	1	2.71354623073507594810	5.44336285213974502284	8.12973570704579096002
	28	1	0.00000000000000099495	8.15690365579864007373	8.12430863629260358039
	29	1	1.35677311536753841814	6.79741971316553250659	6.77025719691050209548
	30	1	4.07031934610261370011	9.51096051682442933384	6.76483012615731560402
	31	1	4.07031934610261370011	6.80284679477285081362	9.48378714642789333311
	32	1	1.35677311536753886223	9.51638759843174675268	9.47836007567470595347
	33	1	5.42709246147015011985	0.00000000000000000000	0.00000000000000000000
	34	1	8.14063869220522562387	2.71354080365889505089	-0.00542707075318713764
	35	1	8.14063869220522562387	0.00542708160731818819	2.71352994951738812901
	36	1	5.42709246147015011985	2.71896788526621335791	2.70810287876420119346
	37	1	6.78386557683768742777	1.35948394263310667895	1.35405143938210059673
	38	1	9.49741180757276381996	4.07302474629200172984	1.34862436862891343914
	39	1	9.49741180757276381996	1.36491102424042476393	4.06758138889948916983
	40	1	6.78386557683768742777	4.07845182789932003686	4.06215431814630179019
	41	1	5.42709246147015011985	0.01085416321463637639	5.42705989903477625802
	42	1	8.14063869220522562387	2.72439496687353122084	5.42163282828158976656
	43	1	8.14063869220522562387	0.01628124482195456718	8.14058984855216571930
	44	1	5.42709246147015100803	2.72982204848084952786	8.13516277779897833966
	45	1	6.78386557683768742777	1.37033810584774307095	6.78111133841687685475
	46	1	9.49741180757276381996	4.08387890950663834388	6.77568426766368947511
	47	1	9.49741180757276381996	1.37576518745506115593	9.49464128793426809239
	48	1	6.78386557683768831595	4.08930599111395665091	9.48921421718108071275
	49	1	5.42709246147015011985	5.42708160731779010177	-0.01085414150637427529
	50	1	8.14063869220522562387	8.14062241097668604084	-0.01628121225956141380
	51	1	8.14063869220522562387	5.43250868892510840880	2.70267580801101381383
	52	1	5.42709246147015100803	8.14604949258400345968	2.69724873725782687828
	53	1	6.78386557683768742777	6.78656554995089589255	1.34319729787572628155
	54	1	9.49741180757276381996	9.50010635360979271979	1.33777022712253912395
	55	1	9.49741180757276381996	6.79199263155821419957	4.05672724739311441056
	56	1	6.78386557683768831595	9.50553343521711013864	4.05130017663992791910
	57	1	5.42709246147015011985	5.43793577053242671582	5.41620575752840238692
	58	1	8.14063869220522562387	8.15147657419132265488	5.41077868677521500729
	59	1	8.14063869220522562387	5.44336285213974502284	8.12973570704579096002
	60	1	5.42709246147015189621	8.15690365579864007373	8.12430863629260358039
	61	1	6.78386557683768742777	6.79741971316553250659	6.77025719691050209548
	62	1	9.49741180757276381996	9.51096051682442933384	6.76483012615731560402
	63	1	9.49741180757276381996	6.80284679477285081362	9.48378714642789333311
	64	1	6.78386557683768920413	9.51638759843174675268	9.47836007567470595347
