 
 64 atoms 
 
 1 atom types
 0.00000000000000000000 11.28835199999999971965 xlo xhi
 0.00000000000000000000 11.28835199999999971965 ylo yhi
 0.00000000000000000000 11.28835199999999971965 zlo zhi
 0.00000000000000000000 0.00000000000000000000 0.00000000000000000000 xy xz yz
 
 Atoms 
 
	1	1	0.00000000000000000000	0.00000000000000000000	0.00000000000000000000
	2	1	2.82208799999999992991	2.82208799999999992991	0.00000000000000000000
	3	1	2.82208799999999992991	0.00000000000000000000	2.82208799999999992991
	4	1	0.00000000000000000000	2.82208799999999992991	2.82208799999999992991
	5	1	1.41104399999999996496	1.41104399999999996496	1.41104399999999996496
	6	1	4.23313199999999945078	4.23313199999999945078	1.41104399999999996496
	7	1	4.23313199999999945078	1.41104399999999996496	4.23313199999999945078
	8	1	1.41104399999999996496	4.23313199999999945078	4.23313199999999945078
	9	1	0.00000000000000000000	0.00000000000000000000	5.64417599999999985982
	10	1	2.82208799999999992991	2.82208799999999992991	5.64417599999999985982
	11	1	2.82208799999999992991	0.00000000000000000000	8.46626399999999890156
	12	1	0.00000000000000000000	2.82208799999999992991	8.46626399999999890156
	13	1	1.41104399999999996496	1.41104399999999996496	7.05522000000000026887
	14	1	4.23313199999999945078	4.23313199999999945078	7.05522000000000026887
	15	1	4.23313199999999945078	1.41104399999999996496	9.87730799999999931060
	16	1	1.41104399999999996496	4.23313199999999945078	9.87730799999999931060
	17	1	0.00000000000000000000	5.64417599999999985982	0.00000000000000000000
	18	1	2.82208799999999992991	8.46626399999999890156	0.00000000000000000000
	19	1	2.82208799999999992991	5.64417599999999985982	2.82208799999999992991
	20	1	0.00000000000000000000	8.46626399999999890156	2.82208799999999992991
	21	1	1.41104399999999996496	7.05522000000000026887	1.41104399999999996496
	22	1	4.23313199999999945078	9.87730799999999931060	1.41104399999999996496
	23	1	4.23313199999999945078	7.05522000000000026887	4.23313199999999945078
	24	1	1.41104399999999996496	9.87730799999999931060	4.23313199999999945078
	25	1	0.00000000000000000000	5.64417599999999985982	5.64417599999999985982
	26	1	2.82208799999999992991	8.46626399999999890156	5.64417599999999985982
	27	1	2.82208799999999992991	5.64417599999999985982	8.46626399999999890156
	28	1	0.00000000000000000000	8.46626399999999890156	8.46626399999999890156
	29	1	1.41104399999999996496	7.05522000000000026887	7.05522000000000026887
	30	1	4.23313199999999945078	9.87730799999999931060	7.05522000000000026887
	31	1	4.23313199999999945078	7.05522000000000026887	9.87730799999999931060
	32	1	1.41104399999999996496	9.87730799999999931060	9.87730799999999931060
	33	1	5.64417599999999985982	0.00000000000000000000	0.00000000000000000000
	34	1	8.46626399999999890156	2.82208799999999992991	0.00000000000000000000
	35	1	8.46626399999999890156	0.00000000000000000000	2.82208799999999992991
	36	1	5.64417599999999985982	2.82208799999999992991	2.82208799999999992991
	37	1	7.05522000000000026887	1.41104399999999996496	1.41104399999999996496
	38	1	9.87730799999999931060	4.23313199999999945078	1.41104399999999996496
	39	1	9.87730799999999931060	1.41104399999999996496	4.23313199999999945078
	40	1	7.05522000000000026887	4.23313199999999945078	4.23313199999999945078
	41	1	5.64417599999999985982	0.00000000000000000000	5.64417599999999985982
	42	1	8.46626399999999890156	2.82208799999999992991	5.64417599999999985982
	43	1	8.46626399999999890156	0.00000000000000000000	8.46626399999999890156
	44	1	5.64417599999999985982	2.82208799999999992991	8.46626399999999890156
	45	1	7.05522000000000026887	1.41104399999999996496	7.05522000000000026887
	46	1	9.87730799999999931060	4.23313199999999945078	7.05522000000000026887
	47	1	9.87730799999999931060	1.41104399999999996496	9.87730799999999931060
	48	1	7.05522000000000026887	4.23313199999999945078	9.87730799999999931060
	49	1	5.64417599999999985982	5.64417599999999985982	0.00000000000000000000
	50	1	8.46626399999999890156	8.46626399999999890156	0.00000000000000000000
	51	1	8.46626399999999890156	5.64417599999999985982	2.82208799999999992991
	52	1	5.64417599999999985982	8.46626399999999890156	2.82208799999999992991
	53	1	7.05522000000000026887	7.05522000000000026887	1.41104399999999996496
	54	1	9.87730799999999931060	9.87730799999999931060	1.41104399999999996496
	55	1	9.87730799999999931060	7.05522000000000026887	4.23313199999999945078
	56	1	7.05522000000000026887	9.87730799999999931060	4.23313199999999945078
	57	1	5.64417599999999985982	5.64417599999999985982	5.64417599999999985982
	58	1	8.46626399999999890156	8.46626399999999890156	5.64417599999999985982
	59	1	8.46626399999999890156	5.64417599999999985982	8.46626399999999890156
	60	1	5.64417599999999985982	8.46626399999999890156	8.46626399999999890156
	61	1	7.05522000000000026887	7.05522000000000026887	7.05522000000000026887
	62	1	9.87730799999999931060	9.87730799999999931060	7.05522000000000026887
	63	1	9.87730799999999931060	7.05522000000000026887	9.87730799999999931060
	64	1	7.05522000000000026887	9.87730799999999931060	9.87730799999999931060
