ITEM: TIMESTEP
0
ITEM: NUMBER OF ATOMS
64
ITEM: BOX BOUNDS xy xz yz pp pp pp
0 11.2884 0
0 11.2884 0
0 11.2884 0
ITEM: ATOMS id type x y z fx fy fz 
1 1 0 0 0 -9.38138e-15 -8.9373e-15 -4.996e-16 
2 1 2.82209 2.82209 0 -3.10862e-15 -3.10862e-15 -1.88738e-15 
3 1 2.82209 0 2.82209 -7.10543e-15 -6.82787e-15 1.38778e-15 
4 1 0 2.82209 2.82209 -6.60583e-15 -7.21645e-15 1.94289e-15 
5 1 1.41104 1.41104 1.41104 8.88178e-16 1.22125e-15 3.88578e-16 
6 1 4.23313 4.23313 1.41104 7.82707e-15 8.21565e-15 -2.22045e-15 
7 1 4.23313 1.41104 4.23313 7.32747e-15 -1.27676e-15 7.88258e-15 
8 1 1.41104 4.23313 4.23313 -1.44329e-15 7.04992e-15 7.32747e-15 
9 1 0 0 5.64418 -8.32667e-15 -8.88178e-15 4.05231e-15 
10 1 2.82209 2.82209 5.64418 -4.27436e-15 -4.16334e-15 2.22045e-15 
11 1 2.82209 0 8.46626 -7.38298e-15 -8.71525e-15 1.29896e-14 
12 1 0 2.82209 8.46626 -8.43769e-15 -7.32747e-15 1.37668e-14 
13 1 1.41104 1.41104 7.05522 9.4369e-16 9.4369e-16 -1.25455e-14 
14 1 4.23313 4.23313 7.05522 5.88418e-15 6.66134e-15 -1.27676e-14 
15 1 4.23313 1.41104 9.87731 9.99201e-15 1.05471e-15 7.21645e-16 
16 1 1.41104 4.23313 9.87731 6.66134e-16 9.54792e-15 2.77556e-16 
17 1 0 5.64418 0 -6.93889e-15 -4.21885e-15 0 
18 1 2.82209 8.46626 0 -4.88498e-15 1.12688e-14 -5.55112e-15 
19 1 2.82209 5.64418 2.82209 -4.38538e-15 2.10942e-15 -4.21885e-15 
20 1 0 8.46626 2.82209 -7.88258e-15 8.54872e-15 -2.27596e-15 
21 1 1.41104 7.05522 1.41104 1.05471e-15 -1.31006e-14 1.05471e-15 
22 1 4.23313 9.87731 1.41104 1.29896e-14 3.27516e-15 -2.44249e-15 
23 1 4.23313 7.05522 4.23313 6.43929e-15 -1.17684e-14 6.27276e-15 
24 1 1.41104 9.87731 4.23313 5.05151e-15 4.55191e-15 6.21725e-15 
25 1 0 5.64418 5.64418 -4.60743e-15 -3.38618e-15 2.498e-15 
26 1 2.82209 8.46626 5.64418 -3.27516e-15 1.33782e-14 -1.72085e-15 
27 1 2.82209 5.64418 8.46626 -4.44089e-15 7.21645e-16 1.2379e-14 
28 1 0 8.46626 8.46626 -6.32827e-15 1.02696e-14 1.55986e-14 
29 1 1.41104 7.05522 7.05522 1.05471e-15 -1.5099e-14 -1.14353e-14 
30 1 4.23313 9.87731 7.05522 7.77156e-15 3.71925e-15 -1.45439e-14 
31 1 4.23313 7.05522 9.87731 5.27356e-15 -1.20459e-14 -7.77156e-16 
32 1 1.41104 9.87731 9.87731 3.94129e-15 2.55351e-15 -1.9984e-15 
33 1 5.64418 0 0 -4.32987e-15 -5.9952e-15 8.88178e-16 
34 1 8.46626 2.82209 0 1.08802e-14 -4.94049e-15 -5.10703e-15 
35 1 8.46626 0 2.82209 8.99281e-15 -7.71605e-15 -3.16414e-15 
36 1 5.64418 2.82209 2.82209 2.27596e-15 -4.44089e-15 -4.32987e-15 
37 1 7.05522 1.41104 1.41104 -1.32672e-14 2.22045e-16 9.4369e-16 
38 1 9.87731 4.23313 1.41104 3.83027e-15 1.30451e-14 -2.66454e-15 
39 1 9.87731 1.41104 4.23313 4.88498e-15 5.10703e-15 4.996e-15 
40 1 7.05522 4.23313 4.23313 -1.18239e-14 6.38378e-15 6.66134e-15 
41 1 5.64418 0 5.64418 -3.33067e-15 -4.10783e-15 2.88658e-15 
42 1 8.46626 2.82209 5.64418 1.32117e-14 -2.66454e-15 -8.88178e-16 
43 1 8.46626 0 8.46626 1.04361e-14 -6.43929e-15 1.60427e-14 
44 1 5.64418 2.82209 8.46626 8.32667e-16 -5.16254e-15 1.24345e-14 
45 1 7.05522 1.41104 7.05522 -1.56541e-14 1.16573e-15 -1.24345e-14 
46 1 9.87731 4.23313 7.05522 2.9976e-15 7.54952e-15 -1.4877e-14 
47 1 9.87731 1.41104 9.87731 3.44169e-15 3.66374e-15 -2.60902e-15 
48 1 7.05522 4.23313 9.87731 -1.29341e-14 5.44009e-15 1.66533e-16 
49 1 5.64418 5.64418 0 5.55112e-17 -3.33067e-16 -3.33067e-16 
50 1 8.46626 8.46626 0 1.36557e-14 1.38778e-14 -3.77476e-15 
51 1 8.46626 5.64418 2.82209 1.10467e-14 1.22125e-15 -5.71765e-15 
52 1 5.64418 8.46626 2.82209 8.32667e-16 1.14353e-14 -5.38458e-15 
53 1 7.05522 7.05522 1.41104 -1.42109e-14 -1.46549e-14 3.21965e-15 
54 1 9.87731 9.87731 1.41104 3.66374e-15 4.55191e-15 -3.83027e-15 
55 1 9.87731 7.05522 4.23313 2.94209e-15 -9.32587e-15 2.66454e-15 
56 1 7.05522 9.87731 4.23313 -9.88098e-15 2.60902e-15 2.38698e-15 
57 1 5.64418 5.64418 5.64418 -2.22045e-16 -1.11022e-16 -1.66533e-16 
58 1 8.46626 8.46626 5.64418 1.30451e-14 1.28231e-14 4.44089e-16 
59 1 8.46626 5.64418 8.46626 1.2268e-14 1.83187e-15 1.17684e-14 
60 1 5.64418 8.46626 8.46626 1.44329e-15 1.12688e-14 1.24345e-14 
61 1 7.05522 7.05522 7.05522 -1.27121e-14 -1.27676e-14 -1.09912e-14 
62 1 9.87731 9.87731 7.05522 5.66214e-15 4.94049e-15 -1.83187e-14 
63 1 9.87731 7.05522 9.87731 3.21965e-15 -1.03251e-14 -2.60902e-15 
64 1 7.05522 9.87731 9.87731 -9.71445e-15 2.60902e-15 -2.9976e-15 
ITEM: TIMESTEP
1
ITEM: NUMBER OF ATOMS
64
ITEM: BOX BOUNDS xy xz yz pp pp pp
0 11.2884 0
0 11.2884 0
0 11.2884 0
ITEM: ATOMS id type x y z fx fy fz 
1 1 -4.28942e-16 -4.08637e-16 -2.28431e-17 4.66294e-15 4.27436e-15 -7.10543e-15 
2 1 2.82209 2.82209 -8.62961e-17 2.16493e-15 -5.88418e-15 -5.10703e-15 
3 1 2.82209 -3.12189e-16 2.82209 1.11022e-14 -4.38538e-15 -9.10383e-15 
4 1 -3.02036e-16 2.82209 2.82209 -4.4964e-15 1.14353e-14 -8.99281e-15 
5 1 1.41104 1.41104 1.41104 -5.32907e-15 -5.66214e-15 -4.88498e-15 
6 1 4.23313 4.23313 1.41104 7.77156e-15 8.21565e-15 -2.05391e-15 
7 1 4.23313 1.41104 4.23313 6.32827e-15 -3.77476e-15 6.99441e-15 
8 1 1.41104 4.23313 4.23313 -3.10862e-15 5.71765e-15 5.88418e-15 
9 1 -3.80718e-16 -4.06099e-16 5.64418 3.77476e-15 3.77476e-15 -8.99281e-15 
10 1 2.82209 2.82209 5.64418 -2.88658e-15 -2.77556e-15 -3.60822e-15 
11 1 2.82209 -3.98485e-16 8.46626 1.03806e-14 7.27196e-15 8.82627e-15 
12 1 -3.85794e-16 2.82209 8.46626 3.77476e-15 6.43929e-15 5.32907e-15 
13 1 1.41104 1.41104 7.05522 -3.77476e-15 -3.71925e-15 -3.16414e-15 
14 1 4.23313 4.23313 7.05522 5.71765e-15 5.16254e-15 -1.16573e-15 
15 1 4.23313 1.41104 9.87731 -1.04916e-14 -7.77156e-15 -5.55112e-16 
16 1 1.41104 4.23313 9.87731 -4.21885e-15 6.38378e-15 -3.9968e-15 
17 1 -3.17265e-16 5.64418 0 3.88578e-16 -3.10862e-15 -8.27116e-15 
18 1 2.82209 8.46626 -2.53812e-16 2.60902e-15 7.88258e-15 5.55112e-16 
19 1 2.82209 5.64418 2.82209 -2.72005e-15 -3.9968e-15 -2.83107e-15 
20 1 -3.60413e-16 8.46626 2.82209 1.44329e-15 1.19349e-14 -6.27276e-15 
21 1 1.41104 7.05522 1.41104 -1.66533e-16 8.32667e-16 2.77556e-16 
22 1 4.23313 9.87731 1.41104 -1.32117e-14 1.94289e-15 2.66454e-15 
23 1 4.23313 7.05522 4.23313 5.71765e-15 -8.32667e-16 4.71845e-15 
24 1 1.41104 9.87731 4.23313 -9.32587e-15 -2.05391e-15 8.60423e-15 
25 1 -2.10664e-16 5.64418 5.64418 -3.16414e-15 -3.27516e-15 -7.04992e-15 
26 1 2.82209 8.46626 5.64418 -1.11022e-15 5.21805e-15 -6.05072e-15 
27 1 2.82209 5.64418 8.46626 -4.05231e-15 -8.21565e-15 7.49401e-15 
28 1 -2.89346e-16 8.46626 8.46626 -8.32667e-16 5.16254e-15 6.05072e-15 
29 1 1.41104 7.05522 7.05522 -4.44089e-15 3.88578e-16 7.77156e-16 
30 1 4.23313 9.87731 7.05522 6.4948e-15 1.11022e-16 1.66533e-16 
31 1 4.23313 7.05522 9.87731 6.4948e-15 0 1.11022e-16 
32 1 1.41104 9.87731 9.87731 -9.04832e-15 -3.10862e-15 3.88578e-15 
33 1 5.64418 -2.74117e-16 4.06099e-17 2.77556e-16 -2.77556e-16 -7.49401e-15 
34 1 8.46626 2.82209 -2.33507e-16 8.43769e-15 2.33147e-15 1.11022e-15 
35 1 8.46626 -3.52799e-16 2.82209 9.10383e-15 -4.44089e-16 -4.55191e-15 
36 1 5.64418 2.82209 2.82209 -3.94129e-15 -2.66454e-15 -2.77556e-15 
37 1 7.05522 1.41104 1.41104 8.32667e-16 -1.66533e-16 -5.55112e-16 
38 1 9.87731 4.23313 1.41104 2.33147e-15 -1.27121e-14 2.27596e-15 
39 1 9.87731 1.41104 4.23313 -1.66533e-15 -9.71445e-15 8.43769e-15 
40 1 7.05522 4.23313 4.23313 -9.99201e-16 5.32907e-15 5.38458e-15 
41 1 5.64418 -1.87821e-16 5.64418 -5.77316e-15 5.55112e-17 -5.4956e-15 
42 1 8.46626 2.82209 5.64418 4.996e-15 -4.44089e-16 -5.32907e-15 
43 1 8.46626 -2.94422e-16 8.46626 4.77396e-15 -8.32667e-16 6.21725e-15 
44 1 5.64418 2.82209 8.46626 -1.55431e-15 2.27596e-15 2.94209e-15 
45 1 7.05522 1.41104 7.05522 -5.55112e-16 -5.10703e-15 4.44089e-16 
46 1 9.87731 4.23313 7.05522 1.11022e-16 6.16174e-15 0 
47 1 9.87731 1.41104 9.87731 -3.38618e-15 -8.71525e-15 3.66374e-15 
48 1 7.05522 4.23313 9.87731 -4.996e-16 5.4956e-15 -8.88178e-16 
49 1 5.64418 5.64418 -1.52287e-17 -5.93969e-15 -5.32907e-15 -2.22045e-16 
50 1 8.46626 8.46626 -1.72592e-16 5.38458e-15 5.44009e-15 -1.33227e-15 
51 1 8.46626 5.64418 2.82209 8.65974e-15 1.27676e-15 7.71605e-15 
52 1 5.64418 8.46626 2.82209 -2.94209e-15 4.4964e-15 4.77396e-15 
53 1 7.05522 7.05522 1.41104 -9.99201e-16 -1.11022e-16 -8.9373e-15 
54 1 9.87731 9.87731 1.41104 -4.10783e-15 -3.94129e-15 5.10703e-15 
55 1 9.87731 7.05522 4.23313 -2.72005e-15 -1.53211e-14 4.94049e-15 
56 1 7.05522 9.87731 4.23313 -1.38778e-15 -2.16493e-15 7.27196e-15 
57 1 5.64418 5.64418 5.64418 -6.32827e-15 -6.05072e-15 -6.21725e-15 
58 1 8.46626 8.46626 5.64418 3.55271e-15 1.04361e-14 -3.55271e-15 
59 1 8.46626 5.64418 8.46626 6.32827e-15 -6.21725e-15 6.05072e-15 
60 1 5.64418 8.46626 8.46626 -6.16174e-15 6.10623e-15 6.21725e-15 
61 1 7.05522 7.05522 7.05522 2.77556e-16 -2.77556e-16 5.55112e-17 
62 1 9.87731 9.87731 7.05522 -3.66374e-15 -3.83027e-15 2.38698e-15 
63 1 9.87731 7.05522 9.87731 4.996e-16 4.44089e-16 -4.44089e-16 
64 1 7.05522 9.87731 9.87731 5.55112e-16 8.32667e-16 -1.11022e-16 
