 
 125 atoms 
 
 1 atom types
 0.00000000000000000000 12.50000000000000000000 xlo xhi
 0.00000000000000000000 12.50000000000000000000 ylo yhi
 0.00000000000000000000 12.50000000000000000000 zlo zhi
 
 Atoms 
 
	1	1	0.00000000000000000000	0.00000000000000000000	0.00000000000000000000
	2	1	0.00000000000000000000	0.00000000000000000000	2.50000000000000000000
	3	1	0.00000000000000000000	0.00000000000000000000	5.00000000000000000000
	4	1	0.00000000000000000000	0.00000000000000000000	7.50000000000000000000
	5	1	0.00000000000000000000	0.00000000000000000000	10.00000000000000000000
	6	1	0.00000000000000000000	2.50000000000000000000	0.00000000000000000000
	7	1	0.00000000000000000000	2.50000000000000000000	2.50000000000000000000
	8	1	0.00000000000000000000	2.50000000000000000000	5.00000000000000000000
	9	1	0.00000000000000000000	2.50000000000000000000	7.50000000000000000000
	10	1	0.00000000000000000000	2.50000000000000000000	10.00000000000000000000
	11	1	0.00000000000000000000	5.00000000000000000000	0.00000000000000000000
	12	1	0.00000000000000000000	5.00000000000000000000	2.50000000000000000000
	13	1	0.00000000000000000000	5.00000000000000000000	5.00000000000000000000
	14	1	0.00000000000000000000	5.00000000000000000000	7.50000000000000000000
	15	1	0.00000000000000000000	5.00000000000000000000	10.00000000000000000000
	16	1	0.00000000000000000000	7.50000000000000000000	0.00000000000000000000
	17	1	0.00000000000000000000	7.50000000000000000000	2.50000000000000000000
	18	1	0.00000000000000000000	7.50000000000000000000	5.00000000000000000000
	19	1	0.00000000000000000000	7.50000000000000000000	7.50000000000000000000
	20	1	0.00000000000000000000	7.50000000000000000000	10.00000000000000000000
	21	1	0.00000000000000000000	10.00000000000000000000	0.00000000000000000000
	22	1	0.00000000000000000000	10.00000000000000000000	2.50000000000000000000
	23	1	0.00000000000000000000	10.00000000000000000000	5.00000000000000000000
	24	1	0.00000000000000000000	10.00000000000000000000	7.50000000000000000000
	25	1	0.00000000000000000000	10.00000000000000000000	10.00000000000000000000
	26	1	2.50000000000000000000	0.00000000000000000000	0.00000000000000000000
	27	1	2.50000000000000000000	0.00000000000000000000	2.50000000000000000000
	28	1	2.50000000000000000000	0.00000000000000000000	5.00000000000000000000
	29	1	2.50000000000000000000	0.00000000000000000000	7.50000000000000000000
	30	1	2.50000000000000000000	0.00000000000000000000	10.00000000000000000000
	31	1	2.50000000000000000000	2.50000000000000000000	0.00000000000000000000
	32	1	2.50000000000000000000	2.50000000000000000000	2.50000000000000000000
	33	1	2.50000000000000000000	2.50000000000000000000	5.00000000000000000000
	34	1	2.50000000000000000000	2.50000000000000000000	7.50000000000000000000
	35	1	2.50000000000000000000	2.50000000000000000000	10.00000000000000000000
	36	1	2.50000000000000000000	5.00000000000000000000	0.00000000000000000000
	37	1	2.50000000000000000000	5.00000000000000000000	2.50000000000000000000
	38	1	2.50000000000000000000	5.00000000000000000000	5.00000000000000000000
	39	1	2.50000000000000000000	5.00000000000000000000	7.50000000000000000000
	40	1	2.50000000000000000000	5.00000000000000000000	10.00000000000000000000
	41	1	2.50000000000000000000	7.50000000000000000000	0.00000000000000000000
	42	1	2.50000000000000000000	7.50000000000000000000	2.50000000000000000000
	43	1	2.50000000000000000000	7.50000000000000000000	5.00000000000000000000
	44	1	2.50000000000000000000	7.50000000000000000000	7.50000000000000000000
	45	1	2.50000000000000000000	7.50000000000000000000	10.00000000000000000000
	46	1	2.50000000000000000000	10.00000000000000000000	0.00000000000000000000
	47	1	2.50000000000000000000	10.00000000000000000000	2.50000000000000000000
	48	1	2.50000000000000000000	10.00000000000000000000	5.00000000000000000000
	49	1	2.50000000000000000000	10.00000000000000000000	7.50000000000000000000
	50	1	2.50000000000000000000	10.00000000000000000000	10.00000000000000000000
	51	1	5.00000000000000000000	0.00000000000000000000	0.00000000000000000000
	52	1	5.00000000000000000000	0.00000000000000000000	2.50000000000000000000
	53	1	5.00000000000000000000	0.00000000000000000000	5.00000000000000000000
	54	1	5.00000000000000000000	0.00000000000000000000	7.50000000000000000000
	55	1	5.00000000000000000000	0.00000000000000000000	10.00000000000000000000
	56	1	5.00000000000000000000	2.50000000000000000000	0.00000000000000000000
	57	1	5.00000000000000000000	2.50000000000000000000	2.50000000000000000000
	58	1	5.00000000000000000000	2.50000000000000000000	5.00000000000000000000
	59	1	5.00000000000000000000	2.50000000000000000000	7.50000000000000000000
	60	1	5.00000000000000000000	2.50000000000000000000	10.00000000000000000000
	61	1	5.00000000000000000000	5.00000000000000000000	0.00000000000000000000
	62	1	5.00000000000000000000	5.00000000000000000000	2.50000000000000000000
	63	1	5.00000000000000000000	5.00000000000000000000	5.00000000000000000000
	64	1	5.00000000000000000000	5.00000000000000000000	7.50000000000000000000
	65	1	5.00000000000000000000	5.00000000000000000000	10.00000000000000000000
	66	1	5.00000000000000000000	7.50000000000000000000	0.00000000000000000000
	67	1	5.00000000000000000000	7.50000000000000000000	2.50000000000000000000
	68	1	5.00000000000000000000	7.50000000000000000000	5.00000000000000000000
	69	1	5.00000000000000000000	7.50000000000000000000	7.50000000000000000000
	70	1	5.00000000000000000000	7.50000000000000000000	10.00000000000000000000
	71	1	5.00000000000000000000	10.00000000000000000000	0.00000000000000000000
	72	1	5.00000000000000000000	10.00000000000000000000	2.50000000000000000000
	73	1	5.00000000000000000000	10.00000000000000000000	5.00000000000000000000
	74	1	5.00000000000000000000	10.00000000000000000000	7.50000000000000000000
	75	1	5.00000000000000000000	10.00000000000000000000	10.00000000000000000000
	76	1	7.50000000000000000000	0.00000000000000000000	0.00000000000000000000
	77	1	7.50000000000000000000	0.00000000000000000000	2.50000000000000000000
	78	1	7.50000000000000000000	0.00000000000000000000	5.00000000000000000000
	79	1	7.50000000000000000000	0.00000000000000000000	7.50000000000000000000
	80	1	7.50000000000000000000	0.00000000000000000000	10.00000000000000000000
	81	1	7.50000000000000000000	2.50000000000000000000	0.00000000000000000000
	82	1	7.50000000000000000000	2.50000000000000000000	2.50000000000000000000
	83	1	7.50000000000000000000	2.50000000000000000000	5.00000000000000000000
	84	1	7.50000000000000000000	2.50000000000000000000	7.50000000000000000000
	85	1	7.50000000000000000000	2.50000000000000000000	10.00000000000000000000
	86	1	7.50000000000000000000	5.00000000000000000000	0.00000000000000000000
	87	1	7.50000000000000000000	5.00000000000000000000	2.50000000000000000000
	88	1	7.50000000000000000000	5.00000000000000000000	5.00000000000000000000
	89	1	7.50000000000000000000	5.00000000000000000000	7.50000000000000000000
	90	1	7.50000000000000000000	5.00000000000000000000	10.00000000000000000000
	91	1	7.50000000000000000000	7.50000000000000000000	0.00000000000000000000
	92	1	7.50000000000000000000	7.50000000000000000000	2.50000000000000000000
	93	1	7.50000000000000000000	7.50000000000000000000	5.00000000000000000000
	94	1	7.50000000000000000000	7.50000000000000000000	7.50000000000000000000
	95	1	7.50000000000000000000	7.50000000000000000000	10.00000000000000000000
	96	1	7.50000000000000000000	10.00000000000000000000	0.00000000000000000000
	97	1	7.50000000000000000000	10.00000000000000000000	2.50000000000000000000
	98	1	7.50000000000000000000	10.00000000000000000000	5.00000000000000000000
	99	1	7.50000000000000000000	10.00000000000000000000	7.50000000000000000000
	100	1	7.50000000000000000000	10.00000000000000000000	10.00000000000000000000
	101	1	10.00000000000000000000	0.00000000000000000000	0.00000000000000000000
	102	1	10.00000000000000000000	0.00000000000000000000	2.50000000000000000000
	103	1	10.00000000000000000000	0.00000000000000000000	5.00000000000000000000
	104	1	10.00000000000000000000	0.00000000000000000000	7.50000000000000000000
	105	1	10.00000000000000000000	0.00000000000000000000	10.00000000000000000000
	106	1	10.00000000000000000000	2.50000000000000000000	0.00000000000000000000
	107	1	10.00000000000000000000	2.50000000000000000000	2.50000000000000000000
	108	1	10.00000000000000000000	2.50000000000000000000	5.00000000000000000000
	109	1	10.00000000000000000000	2.50000000000000000000	7.50000000000000000000
	110	1	10.00000000000000000000	2.50000000000000000000	10.00000000000000000000
	111	1	10.00000000000000000000	5.00000000000000000000	0.00000000000000000000
	112	1	10.00000000000000000000	5.00000000000000000000	2.50000000000000000000
	113	1	10.00000000000000000000	5.00000000000000000000	5.00000000000000000000
	114	1	10.00000000000000000000	5.00000000000000000000	7.50000000000000000000
	115	1	10.00000000000000000000	5.00000000000000000000	10.00000000000000000000
	116	1	10.00000000000000000000	7.50000000000000000000	0.00000000000000000000
	117	1	10.00000000000000000000	7.50000000000000000000	2.50000000000000000000
	118	1	10.00000000000000000000	7.50000000000000000000	5.00000000000000000000
	119	1	10.00000000000000000000	7.50000000000000000000	7.50000000000000000000
	120	1	10.00000000000000000000	7.50000000000000000000	10.00000000000000000000
	121	1	10.00000000000000000000	10.00000000000000000000	0.00000000000000000000
	122	1	10.00000000000000000000	10.00000000000000000000	2.50000000000000000000
	123	1	10.00000000000000000000	10.00000000000000000000	5.00000000000000000000
	124	1	10.00000000000000000000	10.00000000000000000000	7.50000000000000000000
	125	1	10.00000000000000000000	10.00000000000000000000	10.00000000000000000000
