 
 8 atoms 
 
 1 atom types
 0.00000000000000000000 4.95000000000000017764 xlo xhi
 0.00000000000000000000 4.95000000000000017764 ylo yhi
 0.00000000000000000000 4.95000000000000017764 zlo zhi
 0.00000000000000000000 0.00000000000000000000 0.00000000000000000000 xy xz yz
 
 Atoms 
 
	1	1	0.00000000000000000000	0.00000000000000000000	0.00000000000000000000
	2	1	2.47500000000000008882	2.47500000000000008882	0.00000000000000000000
	3	1	2.47500000000000008882	0.00000000000000000000	2.47500000000000008882
	4	1	0.00000000000000000000	2.47500000000000008882	2.47500000000000008882
	5	1	1.23750000000000004441	1.23750000000000004441	1.23750000000000004441
	6	1	3.71250000000000035527	3.71250000000000035527	1.23750000000000004441
	7	1	3.71250000000000035527	1.23750000000000004441	3.71250000000000035527
	8	1	1.23750000000000004441	3.71250000000000035527	3.71250000000000035527
