 
 72 atoms 
 
 1 atom types
 0.00000000000000000000 6.64680365875352130445 xlo xhi
 0.00000000000000000000 3.83753388163193509541 ylo yhi
 0.00000000000000000000 56.39999928384203542464 zlo zhi
 
 Atoms 
 
	1	1	0.00000000000000000000	0.00000000000000000000	0.00000000000000000000
	2	1	0.00000000000000000000	0.00000000000000000000	7.04999991048025442808
	3	1	2.21560121958450695345	0.00000000000000000000	0.78333332338669492412
	4	1	2.21560121958450695345	0.00000000000000000000	3.13333329354677969647
	5	1	4.43120243916901390691	0.00000000000000000000	3.91666661693347428752
	6	1	4.43120243916901390691	0.00000000000000000000	6.26666658709355939294
	7	1	1.10780060979225347673	1.91876694081596754771	3.91666661693347428752
	8	1	1.10780060979225347673	1.91876694081596754771	6.26666658709355939294
	9	1	3.32340182937676065222	1.91876694081596754771	0.00000000000000000000
	10	1	3.32340182937676065222	1.91876694081596754771	7.04999991048025442808
	11	1	5.53900304896126716159	1.91876694081596754771	0.78333332338669492412
	12	1	5.53900304896126716159	1.91876694081596754771	3.13333329354677969647
	13	1	0.00000000000000000000	0.00000000000000000000	9.39999988064033864532
	14	1	0.00000000000000000000	0.00000000000000000000	16.44999979112059307340
	15	1	2.21560121958450695345	0.00000000000000000000	10.18333320402703279228
	16	1	2.21560121958450695345	0.00000000000000000000	12.53333317418711878588
	17	1	4.43120243916901390691	0.00000000000000000000	13.31666649757381293284
	18	1	4.43120243916901390691	0.00000000000000000000	15.66666646773389715008
	19	1	1.10780060979225347673	1.91876694081596754771	13.31666649757381293284
	20	1	1.10780060979225347673	1.91876694081596754771	15.66666646773389715008
	21	1	3.32340182937676065222	1.91876694081596754771	9.39999988064033864532
	22	1	3.32340182937676065222	1.91876694081596754771	16.44999979112059307340
	23	1	5.53900304896126716159	1.91876694081596754771	10.18333320402703279228
	24	1	5.53900304896126716159	1.91876694081596754771	12.53333317418711878588
	25	1	0.00000000000000000000	0.00000000000000000000	18.79999976128067729064
	26	1	0.00000000000000000000	0.00000000000000000000	25.84999967176093349508
	27	1	2.21560121958450695345	0.00000000000000000000	19.58333308466737321396
	28	1	2.21560121958450695345	0.00000000000000000000	21.93333305482745743120
	29	1	4.43120243916901390691	0.00000000000000000000	22.71666637821414980181
	30	1	4.43120243916901390691	0.00000000000000000000	25.06666634837423757176
	31	1	1.10780060979225347673	1.91876694081596754771	22.71666637821414980181
	32	1	1.10780060979225347673	1.91876694081596754771	25.06666634837423757176
	33	1	3.32340182937676065222	1.91876694081596754771	18.79999976128067729064
	34	1	3.32340182937676065222	1.91876694081596754771	25.84999967176093349508
	35	1	5.53900304896126716159	1.91876694081596754771	19.58333308466737321396
	36	1	5.53900304896126716159	1.91876694081596754771	21.93333305482745743120
	37	1	0.00000000000000000000	0.00000000000000000000	28.19999964192101771232
	38	1	0.00000000000000000000	0.00000000000000000000	35.24999955240127036404
	39	1	2.21560121958450695345	0.00000000000000000000	28.98333296530771363564
	40	1	2.21560121958450695345	0.00000000000000000000	31.33333293546779785288
	41	1	4.43120243916901390691	0.00000000000000000000	32.11666625885449377620
	42	1	4.43120243916901390691	0.00000000000000000000	34.46666622901457799344
	43	1	1.10780060979225347673	1.91876694081596754771	32.11666625885449377620
	44	1	1.10780060979225347673	1.91876694081596754771	34.46666622901457799344
	45	1	3.32340182937676065222	1.91876694081596754771	28.19999964192101771232
	46	1	3.32340182937676065222	1.91876694081596754771	35.24999955240127036404
	47	1	5.53900304896126716159	1.91876694081596754771	28.98333296530771363564
	48	1	5.53900304896126716159	1.91876694081596754771	31.33333293546779785288
	49	1	0.00000000000000000000	0.00000000000000000000	37.59999952256135458128
	50	1	0.00000000000000000000	0.00000000000000000000	44.64999943304160723301
	51	1	2.21560121958450695345	0.00000000000000000000	38.38333284594804695189
	52	1	2.21560121958450695345	0.00000000000000000000	40.73333281610813116913
	53	1	4.43120243916901390691	0.00000000000000000000	41.51666613949483064516
	54	1	4.43120243916901390691	0.00000000000000000000	43.86666610965491486240
	55	1	1.10780060979225347673	1.91876694081596754771	41.51666613949483064516
	56	1	1.10780060979225347673	1.91876694081596754771	43.86666610965491486240
	57	1	3.32340182937676065222	1.91876694081596754771	37.59999952256135458128
	58	1	3.32340182937676065222	1.91876694081596754771	44.64999943304160723301
	59	1	5.53900304896126716159	1.91876694081596754771	38.38333284594804695189
	60	1	5.53900304896126716159	1.91876694081596754771	40.73333281610813116913
	61	1	0.00000000000000000000	0.00000000000000000000	46.99999940320169145025
	62	1	0.00000000000000000000	0.00000000000000000000	54.04999931368194410197
	63	1	2.21560121958450695345	0.00000000000000000000	47.78333272658838382085
	64	1	2.21560121958450695345	0.00000000000000000000	50.13333269674846803809
	65	1	4.43120243916901390691	0.00000000000000000000	50.91666602013516751413
	66	1	4.43120243916901390691	0.00000000000000000000	53.26666599029525173137
	67	1	1.10780060979225347673	1.91876694081596754771	50.91666602013516751413
	68	1	1.10780060979225347673	1.91876694081596754771	53.26666599029525173137
	69	1	3.32340182937676065222	1.91876694081596754771	46.99999940320169145025
	70	1	3.32340182937676065222	1.91876694081596754771	54.04999931368194410197
	71	1	5.53900304896126716159	1.91876694081596754771	47.78333272658838382085
	72	1	5.53900304896126716159	1.91876694081596754771	50.13333269674846803809
