 
 125 atoms 
 
 1 atom types
 0.00000000000000000000 18.06657979081537135357 xlo xhi
 0.00000000000000000000 18.06657979081537135357 ylo yhi
 0.00000000000000000000 18.06657979081537135357 zlo zhi
 0.00000000000000000000 0.00000000000000000000 0.00000000000000000000 xy xz yz
 
 Atoms 
 
	1	1	0.00000000000000000000	0.00000000000000000000	0.00000000000000000000
	2	1	0.00000000000000000000	0.00000000000000000000	3.61331595816307427071
	3	1	0.00000000000000000000	0.00000000000000000000	7.22663191632614854143
	4	1	0.00000000000000000000	0.00000000000000000000	10.83994787448922281214
	5	1	0.00000000000000000000	0.00000000000000000000	14.45326383265229708286
	6	1	0.00000000000000000000	3.61331595816307427071	0.00000000000000000000
	7	1	0.00000000000000000000	3.61331595816307427071	3.61331595816307427071
	8	1	0.00000000000000000000	3.61331595816307427071	7.22663191632614854143
	9	1	0.00000000000000000000	3.61331595816307427071	10.83994787448922281214
	10	1	0.00000000000000000000	3.61331595816307427071	14.45326383265229708286
	11	1	0.00000000000000000000	7.22663191632614854143	0.00000000000000000000
	12	1	0.00000000000000000000	7.22663191632614854143	3.61331595816307427071
	13	1	0.00000000000000000000	7.22663191632614854143	7.22663191632614854143
	14	1	0.00000000000000000000	7.22663191632614854143	10.83994787448922281214
	15	1	0.00000000000000000000	7.22663191632614854143	14.45326383265229708286
	16	1	0.00000000000000000000	10.83994787448922281214	0.00000000000000000000
	17	1	0.00000000000000000000	10.83994787448922281214	3.61331595816307427071
	18	1	0.00000000000000000000	10.83994787448922281214	7.22663191632614854143
	19	1	0.00000000000000000000	10.83994787448922281214	10.83994787448922281214
	20	1	0.00000000000000000000	10.83994787448922281214	14.45326383265229708286
	21	1	0.00000000000000000000	14.45326383265229708286	0.00000000000000000000
	22	1	0.00000000000000000000	14.45326383265229708286	3.61331595816307427071
	23	1	0.00000000000000000000	14.45326383265229708286	7.22663191632614854143
	24	1	0.00000000000000000000	14.45326383265229708286	10.83994787448922281214
	25	1	0.00000000000000000000	14.45326383265229708286	14.45326383265229708286
	26	1	3.61331595816307427071	0.00000000000000000000	0.00000000000000000000
	27	1	3.61331595816307427071	0.00000000000000000000	3.61331595816307427071
	28	1	3.61331595816307427071	0.00000000000000000000	7.22663191632614854143
	29	1	3.61331595816307427071	0.00000000000000000000	10.83994787448922281214
	30	1	3.61331595816307427071	0.00000000000000000000	14.45326383265229708286
	31	1	3.61331595816307427071	3.61331595816307427071	0.00000000000000000000
	32	1	3.61331595816307427071	3.61331595816307427071	3.61331595816307427071
	33	1	3.61331595816307427071	3.61331595816307427071	7.22663191632614854143
	34	1	3.61331595816307427071	3.61331595816307427071	10.83994787448922281214
	35	1	3.61331595816307427071	3.61331595816307427071	14.45326383265229708286
	36	1	3.61331595816307427071	7.22663191632614854143	0.00000000000000000000
	37	1	3.61331595816307427071	7.22663191632614854143	3.61331595816307427071
	38	1	3.61331595816307427071	7.22663191632614854143	7.22663191632614854143
	39	1	3.61331595816307427071	7.22663191632614854143	10.83994787448922281214
	40	1	3.61331595816307427071	7.22663191632614854143	14.45326383265229708286
	41	1	3.61331595816307427071	10.83994787448922281214	0.00000000000000000000
	42	1	3.61331595816307427071	10.83994787448922281214	3.61331595816307427071
	43	1	3.61331595816307427071	10.83994787448922281214	7.22663191632614854143
	44	1	3.61331595816307427071	10.83994787448922281214	10.83994787448922281214
	45	1	3.61331595816307427071	10.83994787448922281214	14.45326383265229708286
	46	1	3.61331595816307427071	14.45326383265229708286	0.00000000000000000000
	47	1	3.61331595816307427071	14.45326383265229708286	3.61331595816307427071
	48	1	3.61331595816307427071	14.45326383265229708286	7.22663191632614854143
	49	1	3.61331595816307427071	14.45326383265229708286	10.83994787448922281214
	50	1	3.61331595816307427071	14.45326383265229708286	14.45326383265229708286
	51	1	7.22663191632614854143	0.00000000000000000000	0.00000000000000000000
	52	1	7.22663191632614854143	0.00000000000000000000	3.61331595816307427071
	53	1	7.22663191632614854143	0.00000000000000000000	7.22663191632614854143
	54	1	7.22663191632614854143	0.00000000000000000000	10.83994787448922281214
	55	1	7.22663191632614854143	0.00000000000000000000	14.45326383265229708286
	56	1	7.22663191632614854143	3.61331595816307427071	0.00000000000000000000
	57	1	7.22663191632614854143	3.61331595816307427071	3.61331595816307427071
	58	1	7.22663191632614854143	3.61331595816307427071	7.22663191632614854143
	59	1	7.22663191632614854143	3.61331595816307427071	10.83994787448922281214
	60	1	7.22663191632614854143	3.61331595816307427071	14.45326383265229708286
	61	1	7.22663191632614854143	7.22663191632614854143	0.00000000000000000000
	62	1	7.22663191632614854143	7.22663191632614854143	3.61331595816307427071
	63	1	7.22663191632614854143	7.22663191632614854143	7.22663191632614854143
	64	1	7.22663191632614854143	7.22663191632614854143	10.83994787448922281214
	65	1	7.22663191632614854143	7.22663191632614854143	14.45326383265229708286
	66	1	7.22663191632614854143	10.83994787448922281214	0.00000000000000000000
	67	1	7.22663191632614854143	10.83994787448922281214	3.61331595816307427071
	68	1	7.22663191632614854143	10.83994787448922281214	7.22663191632614854143
	69	1	7.22663191632614854143	10.83994787448922281214	10.83994787448922281214
	70	1	7.22663191632614854143	10.83994787448922281214	14.45326383265229708286
	71	1	7.22663191632614854143	14.45326383265229708286	0.00000000000000000000
	72	1	7.22663191632614854143	14.45326383265229708286	3.61331595816307427071
	73	1	7.22663191632614854143	14.45326383265229708286	7.22663191632614854143
	74	1	7.22663191632614854143	14.45326383265229708286	10.83994787448922281214
	75	1	7.22663191632614854143	14.45326383265229708286	14.45326383265229708286
	76	1	10.83994787448922281214	0.00000000000000000000	0.00000000000000000000
	77	1	10.83994787448922281214	0.00000000000000000000	3.61331595816307427071
	78	1	10.83994787448922281214	0.00000000000000000000	7.22663191632614854143
	79	1	10.83994787448922281214	0.00000000000000000000	10.83994787448922281214
	80	1	10.83994787448922281214	0.00000000000000000000	14.45326383265229708286
	81	1	10.83994787448922281214	3.61331595816307427071	0.00000000000000000000
	82	1	10.83994787448922281214	3.61331595816307427071	3.61331595816307427071
	83	1	10.83994787448922281214	3.61331595816307427071	7.22663191632614854143
	84	1	10.83994787448922281214	3.61331595816307427071	10.83994787448922281214
	85	1	10.83994787448922281214	3.61331595816307427071	14.45326383265229708286
	86	1	10.83994787448922281214	7.22663191632614854143	0.00000000000000000000
	87	1	10.83994787448922281214	7.22663191632614854143	3.61331595816307427071
	88	1	10.83994787448922281214	7.22663191632614854143	7.22663191632614854143
	89	1	10.83994787448922281214	7.22663191632614854143	10.83994787448922281214
	90	1	10.83994787448922281214	7.22663191632614854143	14.45326383265229708286
	91	1	10.83994787448922281214	10.83994787448922281214	0.00000000000000000000
	92	1	10.83994787448922281214	10.83994787448922281214	3.61331595816307427071
	93	1	10.83994787448922281214	10.83994787448922281214	7.22663191632614854143
	94	1	10.83994787448922281214	10.83994787448922281214	10.83994787448922281214
	95	1	10.83994787448922281214	10.83994787448922281214	14.45326383265229708286
	96	1	10.83994787448922281214	14.45326383265229708286	0.00000000000000000000
	97	1	10.83994787448922281214	14.45326383265229708286	3.61331595816307427071
	98	1	10.83994787448922281214	14.45326383265229708286	7.22663191632614854143
	99	1	10.83994787448922281214	14.45326383265229708286	10.83994787448922281214
	100	1	10.83994787448922281214	14.45326383265229708286	14.45326383265229708286
	101	1	14.45326383265229708286	0.00000000000000000000	0.00000000000000000000
	102	1	14.45326383265229708286	0.00000000000000000000	3.61331595816307427071
	103	1	14.45326383265229708286	0.00000000000000000000	7.22663191632614854143
	104	1	14.45326383265229708286	0.00000000000000000000	10.83994787448922281214
	105	1	14.45326383265229708286	0.00000000000000000000	14.45326383265229708286
	106	1	14.45326383265229708286	3.61331595816307427071	0.00000000000000000000
	107	1	14.45326383265229708286	3.61331595816307427071	3.61331595816307427071
	108	1	14.45326383265229708286	3.61331595816307427071	7.22663191632614854143
	109	1	14.45326383265229708286	3.61331595816307427071	10.83994787448922281214
	110	1	14.45326383265229708286	3.61331595816307427071	14.45326383265229708286
	111	1	14.45326383265229708286	7.22663191632614854143	0.00000000000000000000
	112	1	14.45326383265229708286	7.22663191632614854143	3.61331595816307427071
	113	1	14.45326383265229708286	7.22663191632614854143	7.22663191632614854143
	114	1	14.45326383265229708286	7.22663191632614854143	10.83994787448922281214
	115	1	14.45326383265229708286	7.22663191632614854143	14.45326383265229708286
	116	1	14.45326383265229708286	10.83994787448922281214	0.00000000000000000000
	117	1	14.45326383265229708286	10.83994787448922281214	3.61331595816307427071
	118	1	14.45326383265229708286	10.83994787448922281214	7.22663191632614854143
	119	1	14.45326383265229708286	10.83994787448922281214	10.83994787448922281214
	120	1	14.45326383265229708286	10.83994787448922281214	14.45326383265229708286
	121	1	14.45326383265229708286	14.45326383265229708286	0.00000000000000000000
	122	1	14.45326383265229708286	14.45326383265229708286	3.61331595816307427071
	123	1	14.45326383265229708286	14.45326383265229708286	7.22663191632614854143
	124	1	14.45326383265229708286	14.45326383265229708286	10.83994787448922281214
	125	1	14.45326383265229708286	14.45326383265229708286	14.45326383265229708286
