thermo_style    custom step atoms pe ke etotal press vol lx ly lz
thermo_modify   line one format float %.16g
fix             1 all box/relax iso 0.0 vmax 0.0001
min_style       cg
min_modify      line quadratic
minimize        1.0e-16 1.0e-16 100000 1000000
WARNING: Resetting reneighboring criteria during minimization (../min.cpp:168)
Neighbor list info ...
  2 neighbor list requests
  update every 1 steps, delay 0 steps, check yes
  master list distance cutoff = 6
Memory usage per processor = 9.24623 Mbytes
Step Atoms PotEng KinEng TotEng Press Volume Lx Ly Lz 
       0      125 -123.9372900739402 0 -123.9372900739402 -47941.71047492289 5896.955226713433 18.06657979081537 18.06657979081537 18.06657979081537 
    3536      125 -392.1128500546345 0 -392.1128500546345 -3.423948059441202e-10 1604.970022881307 11.7081687976705 11.7081687976705 11.7081687976705 
Loop time of 2.30998 on 1 procs for 3536 steps with 125 atoms

Minimization stats:
  Stopping criterion = energy tolerance
  Energy initial, next-to-last, final = 
        -123.937290074     -392.112850055     -392.112850055
  Force two-norm initial, final = 529.361 1.60098e-12
  Force max component initial, final = 529.361 1.58779e-12
  Final line search alpha, max atom move = 1 1.58779e-12
  Iterations, force evaluations = 3536 3553

Pair  time (%) = 1.74866 (75.7001)
Neigh time (%) = 0.0025878 (0.112027)
Comm  time (%) = 0.0108683 (0.470494)
Outpt time (%) = 0.491754 (21.2882)
Other time (%) = 0.0561132 (2.42917)

Nlocal:    125 ave 125 max 125 min
Histogram: 1 0 0 0 0 0 0 0 0 0
Nghost:    875 ave 875 max 875 min
Histogram: 1 0 0 0 0 0 0 0 0 0
Neighs:    5000 ave 5000 max 5000 min
Histogram: 1 0 0 0 0 0 0 0 0 0
FullNghs:  10000 ave 10000 max 10000 min
Histogram: 1 0 0 0 0 0 0 0 0 0

Total # of neighbors = 10000
Ave neighs/atom = 80
Neighbor list builds = 11
Dangerous builds = 0
