 
 4 atoms 
 
 1 atom types
 0.00000000000000000000 3.79999999999999982236 xlo xhi
 0.00000000000000000000 6.58179306876173342289 ylo yhi
 0.00000000000000000000 6.20537401505071795071 zlo zhi
 
 Atoms 
 
	1	1	0.00000000000000000000	0.00000000000000000000	0.00000000000000000000
	2	1	1.89999999999999991118	3.29089653438086671144	0.00000000000000000000
	3	1	0.00000000000000000000	4.38786204584115591132	3.10268700752535897536
	4	1	1.89999999999999991118	1.09696551146028897783	3.10268700752535897536
