ITEM: TIMESTEP
0
ITEM: NUMBER OF ATOMS
4
ITEM: BOX BOUNDS pp pp pp
0 3.8
0 6.58179
0 6.20537
ITEM: ATOMS id type x y z 
1 1 0 0 0 
2 1 1.9 3.2909 0 
3 1 0 4.38786 3.10269 
4 1 1.9 1.09697 3.10269 
ITEM: TIMESTEP
1
ITEM: NUMBER OF ATOMS
4
ITEM: BOX BOUNDS pp pp pp
0.0019 3.7981
0.0032909 6.5785
0.00310269 6.20227
ITEM: ATOMS id type x y z 
1 1 0.0019 0.0032909 0.00310269 
2 1 1.9 3.2909 0.00310269 
3 1 0.0019 4.38677 3.10269 
4 1 1.9 1.09916 3.10269 
ITEM: TIMESTEP
2
ITEM: NUMBER OF ATOMS
4
ITEM: BOX BOUNDS pp pp pp
0.0038 3.7962
0.00658179 6.57521
0.00620537 6.19917
ITEM: ATOMS id type x y z 
1 1 0.0038 0.00658179 0.00620537 
2 1 1.9 3.2909 0.00620537 
3 1 0.0038 4.38567 3.10269 
4 1 1.9 1.10135 3.10269 
ITEM: TIMESTEP
3
ITEM: NUMBER OF ATOMS
4
ITEM: BOX BOUNDS pp pp pp
0.0057 3.7943
0.00987269 6.57192
0.00930806 6.19607
ITEM: ATOMS id type x y z 
1 1 0.0057 0.00987269 0.00930806 
2 1 1.9 3.2909 0.00930806 
3 1 0.0057 4.38457 3.10269 
4 1 1.9 1.10355 3.10269 
ITEM: TIMESTEP
4
ITEM: NUMBER OF ATOMS
4
ITEM: BOX BOUNDS pp pp pp
0.0076 3.7924
0.0131636 6.56863
0.0124107 6.19296
ITEM: ATOMS id type x y z 
1 1 0.0076 0.0131636 0.0124107 
2 1 1.9 3.2909 0.0124107 
3 1 0.0076 4.38347 3.10269 
4 1 1.9 1.10574 3.10269 
ITEM: TIMESTEP
5
ITEM: NUMBER OF ATOMS
4
ITEM: BOX BOUNDS pp pp pp
0.0095 3.7905
0.0164545 6.56534
0.0155134 6.18986
ITEM: ATOMS id type x y z 
1 1 0.0095 0.0164545 0.0155134 
2 1 1.9 3.2909 0.0155134 
3 1 0.0095 4.38238 3.10269 
4 1 1.9 1.10794 3.10269 
ITEM: TIMESTEP
6
ITEM: NUMBER OF ATOMS
4
ITEM: BOX BOUNDS pp pp pp
0.0114 3.7886
0.0197454 6.56205
0.0186161 6.18676
ITEM: ATOMS id type x y z 
1 1 0.0114 0.0197454 0.0186161 
2 1 1.9 3.2909 0.0186161 
3 1 0.0114 4.38128 3.10269 
4 1 1.9 1.11013 3.10269 
ITEM: TIMESTEP
7
ITEM: NUMBER OF ATOMS
4
ITEM: BOX BOUNDS pp pp pp
0.0133 3.7867
0.0230363 6.55876
0.0217188 6.18366
ITEM: ATOMS id type x y z 
1 1 0.0133 0.0230363 0.0217188 
2 1 1.9 3.2909 0.0217188 
3 1 0.0133 4.38018 3.10269 
4 1 1.9 1.11232 3.10269 
ITEM: TIMESTEP
8
ITEM: NUMBER OF ATOMS
4
ITEM: BOX BOUNDS pp pp pp
0.0152 3.7848
0.0263272 6.55547
0.0248215 6.18055
ITEM: ATOMS id type x y z 
1 1 0.0152 0.0263272 0.0248215 
2 1 1.9 3.2909 0.0248215 
3 1 0.0152 4.37909 3.10269 
4 1 1.9 1.11452 3.10269 
ITEM: TIMESTEP
9
ITEM: NUMBER OF ATOMS
4
ITEM: BOX BOUNDS pp pp pp
0.0171 3.7829
0.0296181 6.55217
0.0279242 6.17745
ITEM: ATOMS id type x y z 
1 1 0.0171 0.0296181 0.0279242 
2 1 1.9 3.2909 0.0279242 
3 1 0.0171 4.37799 3.10269 
4 1 1.9 1.11671 3.10269 
ITEM: TIMESTEP
10
ITEM: NUMBER OF ATOMS
4
ITEM: BOX BOUNDS pp pp pp
0.019 3.781
0.032909 6.54888
0.0310269 6.17435
ITEM: ATOMS id type x y z 
1 1 0.019 0.032909 0.0310269 
2 1 1.9 3.2909 0.0310269 
3 1 0.019 4.37689 3.10269 
4 1 1.9 1.1189 3.10269 
ITEM: TIMESTEP
11
ITEM: NUMBER OF ATOMS
4
ITEM: BOX BOUNDS pp pp pp
0.0209 3.7791
0.0361999 6.54559
0.0341296 6.17124
ITEM: ATOMS id type x y z 
1 1 0.0209 0.0361999 0.0341296 
2 1 1.9 3.2909 0.0341296 
3 1 0.0209 4.3758 3.10269 
4 1 1.9 1.1211 3.10269 
ITEM: TIMESTEP
12
ITEM: NUMBER OF ATOMS
4
ITEM: BOX BOUNDS pp pp pp
0.0228 3.7772
0.0394908 6.5423
0.0372322 6.16814
ITEM: ATOMS id type x y z 
1 1 0.0228 0.0394908 0.0372322 
2 1 1.9 3.2909 0.0372322 
3 1 0.0228 4.3747 3.10269 
4 1 1.9 1.12329 3.10269 
ITEM: TIMESTEP
13
ITEM: NUMBER OF ATOMS
4
ITEM: BOX BOUNDS pp pp pp
0.0247 3.7753
0.0427817 6.53901
0.0403349 6.16504
ITEM: ATOMS id type x y z 
1 1 0.0247 0.0427817 0.0403349 
2 1 1.9 3.2909 0.0403349 
3 1 0.0247 4.3736 3.10269 
4 1 1.9 1.12549 3.10269 
ITEM: TIMESTEP
14
ITEM: NUMBER OF ATOMS
4
ITEM: BOX BOUNDS pp pp pp
0.0266 3.7734
0.0460726 6.53572
0.0434376 6.16194
ITEM: ATOMS id type x y z 
1 1 0.0266 0.0460726 0.0434376 
2 1 1.9 3.2909 0.0434376 
3 1 0.0266 4.3725 3.10269 
4 1 1.9 1.12768 3.10269 
ITEM: TIMESTEP
15
ITEM: NUMBER OF ATOMS
4
ITEM: BOX BOUNDS pp pp pp
0.0285 3.7715
0.0493634 6.53243
0.0465403 6.15883
ITEM: ATOMS id type x y z 
1 1 0.0285 0.0493634 0.0465403 
2 1 1.9 3.2909 0.0465403 
3 1 0.0285 4.37141 3.10269 
4 1 1.9 1.12987 3.10269 
ITEM: TIMESTEP
16
ITEM: NUMBER OF ATOMS
4
ITEM: BOX BOUNDS pp pp pp
0.0304 3.7696
0.0526543 6.52914
0.049643 6.15573
ITEM: ATOMS id type x y z 
1 1 0.0304 0.0526543 0.049643 
2 1 1.9 3.2909 0.049643 
3 1 0.0304 4.37031 3.10269 
4 1 1.9 1.13207 3.10269 
ITEM: TIMESTEP
17
ITEM: NUMBER OF ATOMS
4
ITEM: BOX BOUNDS pp pp pp
0.0323 3.7677
0.0559452 6.52585
0.0527457 6.15263
ITEM: ATOMS id type x y z 
1 1 0.0323 0.0559452 0.0527457 
2 1 1.9 3.2909 0.0527457 
3 1 0.0323 4.36921 3.10269 
4 1 1.9 1.13426 3.10269 
ITEM: TIMESTEP
18
ITEM: NUMBER OF ATOMS
4
ITEM: BOX BOUNDS pp pp pp
0.0342 3.7658
0.0592361 6.52256
0.0558484 6.14953
ITEM: ATOMS id type x y z 
1 1 0.0342 0.0592361 0.0558484 
2 1 1.9 3.2909 0.0558484 
3 1 0.0342 4.36812 3.10269 
4 1 1.9 1.13646 3.10269 
ITEM: TIMESTEP
19
ITEM: NUMBER OF ATOMS
4
ITEM: BOX BOUNDS pp pp pp
0.0361 3.7639
0.062527 6.51927
0.0589511 6.14642
ITEM: ATOMS id type x y z 
1 1 0.0361 0.062527 0.0589511 
2 1 1.9 3.2909 0.0589511 
3 1 0.0361 4.36702 3.10269 
4 1 1.9 1.13865 3.10269 
ITEM: TIMESTEP
20
ITEM: NUMBER OF ATOMS
4
ITEM: BOX BOUNDS pp pp pp
0.038 3.762
0.0658179 6.51598
0.0620537 6.14332
ITEM: ATOMS id type x y z 
1 1 0.038 0.0658179 0.0620537 
2 1 1.9 3.2909 0.0620537 
3 1 0.038 4.36592 3.10269 
4 1 1.9 1.14084 3.10269 
ITEM: TIMESTEP
21
ITEM: NUMBER OF ATOMS
4
ITEM: BOX BOUNDS pp pp pp
0.0399 3.7601
0.0691088 6.51268
0.0651564 6.14022
ITEM: ATOMS id type x y z 
1 1 0.0399 0.0691088 0.0651564 
2 1 1.9 3.2909 0.0651564 
3 1 0.0399 4.36483 3.10269 
4 1 1.9 1.14304 3.10269 
ITEM: TIMESTEP
22
ITEM: NUMBER OF ATOMS
4
ITEM: BOX BOUNDS pp pp pp
0.0418 3.7582
0.0723997 6.50939
0.0682591 6.13711
ITEM: ATOMS id type x y z 
1 1 0.0418 0.0723997 0.0682591 
2 1 1.9 3.2909 0.0682591 
3 1 0.0418 4.36373 3.10269 
4 1 1.9 1.14523 3.10269 
ITEM: TIMESTEP
23
ITEM: NUMBER OF ATOMS
4
ITEM: BOX BOUNDS pp pp pp
0.0437 3.7563
0.0756906 6.5061
0.0713618 6.13401
ITEM: ATOMS id type x y z 
1 1 0.0437 0.0756906 0.0713618 
2 1 1.9 3.2909 0.0713618 
3 1 0.0437 4.36263 3.10269 
4 1 1.9 1.14743 3.10269 
ITEM: TIMESTEP
24
ITEM: NUMBER OF ATOMS
4
ITEM: BOX BOUNDS pp pp pp
0.0456 3.7544
0.0789815 6.50281
0.0744645 6.13091
ITEM: ATOMS id type x y z 
1 1 0.0456 0.0789815 0.0744645 
2 1 1.9 3.2909 0.0744645 
3 1 0.0456 4.36153 3.10269 
4 1 1.9 1.14962 3.10269 
ITEM: TIMESTEP
25
ITEM: NUMBER OF ATOMS
4
ITEM: BOX BOUNDS pp pp pp
0.0475 3.7525
0.0822724 6.49952
0.0775672 6.12781
ITEM: ATOMS id type x y z 
1 1 0.0475 0.0822724 0.0775672 
2 1 1.9 3.2909 0.0775672 
3 1 0.0475 4.36044 3.10269 
4 1 1.9 1.15181 3.10269 
ITEM: TIMESTEP
26
ITEM: NUMBER OF ATOMS
4
ITEM: BOX BOUNDS pp pp pp
0.0494 3.7506
0.0855633 6.49623
0.0806699 6.1247
ITEM: ATOMS id type x y z 
1 1 0.0494 0.0855633 0.0806699 
2 1 1.9 3.2909 0.0806699 
3 1 0.0494 4.35934 3.10269 
4 1 1.9 1.15401 3.10269 
ITEM: TIMESTEP
27
ITEM: NUMBER OF ATOMS
4
ITEM: BOX BOUNDS pp pp pp
0.0513 3.7487
0.0888542 6.49294
0.0837725 6.1216
ITEM: ATOMS id type x y z 
1 1 0.0513 0.0888542 0.0837725 
2 1 1.9 3.2909 0.0837725 
3 1 0.0513 4.35824 3.10269 
4 1 1.9 1.1562 3.10269 
ITEM: TIMESTEP
28
ITEM: NUMBER OF ATOMS
4
ITEM: BOX BOUNDS pp pp pp
0.0532 3.7468
0.0921451 6.48965
0.0868752 6.1185
ITEM: ATOMS id type x y z 
1 1 0.0532 0.0921451 0.0868752 
2 1 1.9 3.2909 0.0868752 
3 1 0.0532 4.35715 3.10269 
4 1 1.9 1.1584 3.10269 
ITEM: TIMESTEP
29
ITEM: NUMBER OF ATOMS
4
ITEM: BOX BOUNDS pp pp pp
0.0551 3.7449
0.095436 6.48636
0.0899779 6.1154
ITEM: ATOMS id type x y z 
1 1 0.0551 0.095436 0.0899779 
2 1 1.9 3.2909 0.0899779 
3 1 0.0551 4.35605 3.10269 
4 1 1.9 1.16059 3.10269 
ITEM: TIMESTEP
30
ITEM: NUMBER OF ATOMS
4
ITEM: BOX BOUNDS pp pp pp
0.057 3.743
0.0987269 6.48307
0.0930806 6.11229
ITEM: ATOMS id type x y z 
1 1 0.057 0.0987269 0.0930806 
2 1 1.9 3.2909 0.0930806 
3 1 0.057 4.35495 3.10269 
4 1 1.9 1.16278 3.10269 
ITEM: TIMESTEP
31
ITEM: NUMBER OF ATOMS
4
ITEM: BOX BOUNDS pp pp pp
0.0589 3.7411
0.102018 6.47978
0.0961833 6.10919
ITEM: ATOMS id type x y z 
1 1 0.0589 0.102018 0.0961833 
2 1 1.9 3.2909 0.0961833 
3 1 0.0589 4.35386 3.10269 
4 1 1.9 1.16498 3.10269 
ITEM: TIMESTEP
32
ITEM: NUMBER OF ATOMS
4
ITEM: BOX BOUNDS pp pp pp
0.0608 3.7392
0.105309 6.47648
0.099286 6.10609
ITEM: ATOMS id type x y z 
1 1 0.0608 0.105309 0.099286 
2 1 1.9 3.2909 0.099286 
3 1 0.0608 4.35276 3.10269 
4 1 1.9 1.16717 3.10269 
ITEM: TIMESTEP
33
ITEM: NUMBER OF ATOMS
4
ITEM: BOX BOUNDS pp pp pp
0.0627 3.7373
0.1086 6.47319
0.102389 6.10299
ITEM: ATOMS id type x y z 
1 1 0.0627 0.1086 0.102389 
2 1 1.9 3.2909 0.102389 
3 1 0.0627 4.35166 3.10269 
4 1 1.9 1.16937 3.10269 
ITEM: TIMESTEP
34
ITEM: NUMBER OF ATOMS
4
ITEM: BOX BOUNDS pp pp pp
0.0646 3.7354
0.11189 6.4699
0.105491 6.09988
ITEM: ATOMS id type x y z 
1 1 0.0646 0.11189 0.105491 
2 1 1.9 3.2909 0.105491 
3 1 0.0646 4.35057 3.10269 
4 1 1.9 1.17156 3.10269 
ITEM: TIMESTEP
35
ITEM: NUMBER OF ATOMS
4
ITEM: BOX BOUNDS pp pp pp
0.0665 3.7335
0.115181 6.46661
0.108594 6.09678
ITEM: ATOMS id type x y z 
1 1 0.0665 0.115181 0.108594 
2 1 1.9 3.2909 0.108594 
3 1 0.0665 4.34947 3.10269 
4 1 1.9 1.17375 3.10269 
ITEM: TIMESTEP
36
ITEM: NUMBER OF ATOMS
4
ITEM: BOX BOUNDS pp pp pp
0.0684 3.7316
0.118472 6.46332
0.111697 6.09368
ITEM: ATOMS id type x y z 
1 1 0.0684 0.118472 0.111697 
2 1 1.9 3.2909 0.111697 
3 1 0.0684 4.34837 3.10269 
4 1 1.9 1.17595 3.10269 
ITEM: TIMESTEP
37
ITEM: NUMBER OF ATOMS
4
ITEM: BOX BOUNDS pp pp pp
0.0703 3.7297
0.121763 6.46003
0.114799 6.09057
ITEM: ATOMS id type x y z 
1 1 0.0703 0.121763 0.114799 
2 1 1.9 3.2909 0.114799 
3 1 0.0703 4.34727 3.10269 
4 1 1.9 1.17814 3.10269 
ITEM: TIMESTEP
38
ITEM: NUMBER OF ATOMS
4
ITEM: BOX BOUNDS pp pp pp
0.0722 3.7278
0.125054 6.45674
0.117902 6.08747
ITEM: ATOMS id type x y z 
1 1 0.0722 0.125054 0.117902 
2 1 1.9 3.2909 0.117902 
3 1 0.0722 4.34618 3.10269 
4 1 1.9 1.18033 3.10269 
ITEM: TIMESTEP
39
ITEM: NUMBER OF ATOMS
4
ITEM: BOX BOUNDS pp pp pp
0.0741 3.7259
0.128345 6.45345
0.121005 6.08437
ITEM: ATOMS id type x y z 
1 1 0.0741 0.128345 0.121005 
2 1 1.9 3.2909 0.121005 
3 1 0.0741 4.34508 3.10269 
4 1 1.9 1.18253 3.10269 
ITEM: TIMESTEP
40
ITEM: NUMBER OF ATOMS
4
ITEM: BOX BOUNDS pp pp pp
0.076 3.724
0.131636 6.45016
0.124107 6.08127
ITEM: ATOMS id type x y z 
1 1 0.076 0.131636 0.124107 
2 1 1.9 3.2909 0.124107 
3 1 0.076 4.34398 3.10269 
4 1 1.9 1.18472 3.10269 
ITEM: TIMESTEP
41
ITEM: NUMBER OF ATOMS
4
ITEM: BOX BOUNDS pp pp pp
0.0779 3.7221
0.134927 6.44687
0.12721 6.07816
ITEM: ATOMS id type x y z 
1 1 0.0779 0.134927 0.12721 
2 1 1.9 3.2909 0.12721 
3 1 0.0779 4.34289 3.10269 
4 1 1.9 1.18692 3.10269 
ITEM: TIMESTEP
42
ITEM: NUMBER OF ATOMS
4
ITEM: BOX BOUNDS pp pp pp
0.0798 3.7202
0.138218 6.44358
0.130313 6.07506
ITEM: ATOMS id type x y z 
1 1 0.0798 0.138218 0.130313 
2 1 1.9 3.2909 0.130313 
3 1 0.0798 4.34179 3.10269 
4 1 1.9 1.18911 3.10269 
ITEM: TIMESTEP
43
ITEM: NUMBER OF ATOMS
4
ITEM: BOX BOUNDS pp pp pp
0.0817 3.7183
0.141509 6.44028
0.133416 6.07196
ITEM: ATOMS id type x y z 
1 1 0.0817 0.141509 0.133416 
2 1 1.9 3.2909 0.133416 
3 1 0.0817 4.34069 3.10269 
4 1 1.9 1.1913 3.10269 
ITEM: TIMESTEP
44
ITEM: NUMBER OF ATOMS
4
ITEM: BOX BOUNDS pp pp pp
0.0836 3.7164
0.144799 6.43699
0.136518 6.06886
ITEM: ATOMS id type x y z 
1 1 0.0836 0.144799 0.136518 
2 1 1.9 3.2909 0.136518 
3 1 0.0836 4.3396 3.10269 
4 1 1.9 1.1935 3.10269 
ITEM: TIMESTEP
45
ITEM: NUMBER OF ATOMS
4
ITEM: BOX BOUNDS pp pp pp
0.0855 3.7145
0.14809 6.4337
0.139621 6.06575
ITEM: ATOMS id type x y z 
1 1 0.0855 0.14809 0.139621 
2 1 1.9 3.2909 0.139621 
3 1 0.0855 4.3385 3.10269 
4 1 1.9 1.19569 3.10269 
ITEM: TIMESTEP
46
ITEM: NUMBER OF ATOMS
4
ITEM: BOX BOUNDS pp pp pp
0.0874 3.7126
0.151381 6.43041
0.142724 6.06265
ITEM: ATOMS id type x y z 
1 1 0.0874 0.151381 0.142724 
2 1 1.9 3.2909 0.142724 
3 1 0.0874 4.3374 3.10269 
4 1 1.9 1.19789 3.10269 
ITEM: TIMESTEP
47
ITEM: NUMBER OF ATOMS
4
ITEM: BOX BOUNDS pp pp pp
0.0893 3.7107
0.154672 6.42712
0.145826 6.05955
ITEM: ATOMS id type x y z 
1 1 0.0893 0.154672 0.145826 
2 1 1.9 3.2909 0.145826 
3 1 0.0893 4.3363 3.10269 
4 1 1.9 1.20008 3.10269 
ITEM: TIMESTEP
48
ITEM: NUMBER OF ATOMS
4
ITEM: BOX BOUNDS pp pp pp
0.0912 3.7088
0.157963 6.42383
0.148929 6.05645
ITEM: ATOMS id type x y z 
1 1 0.0912 0.157963 0.148929 
2 1 1.9 3.2909 0.148929 
3 1 0.0912 4.33521 3.10269 
4 1 1.9 1.20227 3.10269 
ITEM: TIMESTEP
49
ITEM: NUMBER OF ATOMS
4
ITEM: BOX BOUNDS pp pp pp
0.0931 3.7069
0.161254 6.42054
0.152032 6.05334
ITEM: ATOMS id type x y z 
1 1 0.0931 0.161254 0.152032 
2 1 1.9 3.2909 0.152032 
3 1 0.0931 4.33411 3.10269 
4 1 1.9 1.20447 3.10269 
ITEM: TIMESTEP
50
ITEM: NUMBER OF ATOMS
4
ITEM: BOX BOUNDS pp pp pp
0.095 3.705
0.164545 6.41725
0.155134 6.05024
ITEM: ATOMS id type x y z 
1 1 0.095 0.164545 0.155134 
2 1 1.9 3.2909 0.155134 
3 1 0.095 4.33301 3.10269 
4 1 1.9 1.20666 3.10269 
ITEM: TIMESTEP
51
ITEM: NUMBER OF ATOMS
4
ITEM: BOX BOUNDS pp pp pp
0.0969 3.7031
0.167836 6.41396
0.158237 6.04714
ITEM: ATOMS id type x y z 
1 1 0.0969 0.167836 0.158237 
2 1 1.9 3.2909 0.158237 
3 1 0.0969 4.33192 3.10269 
4 1 1.9 1.20886 3.10269 
ITEM: TIMESTEP
52
ITEM: NUMBER OF ATOMS
4
ITEM: BOX BOUNDS pp pp pp
0.0988 3.7012
0.171127 6.41067
0.16134 6.04403
ITEM: ATOMS id type x y z 
1 1 0.0988 0.171127 0.16134 
2 1 1.9 3.2909 0.16134 
3 1 0.0988 4.33082 3.10269 
4 1 1.9 1.21105 3.10269 
ITEM: TIMESTEP
53
ITEM: NUMBER OF ATOMS
4
ITEM: BOX BOUNDS pp pp pp
0.1007 3.6993
0.174418 6.40738
0.164442 6.04093
ITEM: ATOMS id type x y z 
1 1 0.1007 0.174418 0.164442 
2 1 1.9 3.2909 0.164442 
3 1 0.1007 4.32972 3.10269 
4 1 1.9 1.21324 3.10269 
ITEM: TIMESTEP
54
ITEM: NUMBER OF ATOMS
4
ITEM: BOX BOUNDS pp pp pp
0.1026 3.6974
0.177708 6.40408
0.167545 6.03783
ITEM: ATOMS id type x y z 
1 1 0.1026 0.177708 0.167545 
2 1 1.9 3.2909 0.167545 
3 1 0.1026 4.32863 3.10269 
4 1 1.9 1.21544 3.10269 
ITEM: TIMESTEP
55
ITEM: NUMBER OF ATOMS
4
ITEM: BOX BOUNDS pp pp pp
0.1045 3.6955
0.180999 6.40079
0.170648 6.03473
ITEM: ATOMS id type x y z 
1 1 0.1045 0.180999 0.170648 
2 1 1.9 3.2909 0.170648 
3 1 0.1045 4.32753 3.10269 
4 1 1.9 1.21763 3.10269 
ITEM: TIMESTEP
56
ITEM: NUMBER OF ATOMS
4
ITEM: BOX BOUNDS pp pp pp
0.1064 3.6936
0.18429 6.3975
0.17375 6.03162
ITEM: ATOMS id type x y z 
1 1 0.1064 0.18429 0.17375 
2 1 1.9 3.2909 0.17375 
3 1 0.1064 4.32643 3.10269 
4 1 1.9 1.21983 3.10269 
ITEM: TIMESTEP
57
ITEM: NUMBER OF ATOMS
4
ITEM: BOX BOUNDS pp pp pp
0.1083 3.6917
0.187581 6.39421
0.176853 6.02852
ITEM: ATOMS id type x y z 
1 1 0.1083 0.187581 0.176853 
2 1 1.9 3.2909 0.176853 
3 1 0.1083 4.32534 3.10269 
4 1 1.9 1.22202 3.10269 
ITEM: TIMESTEP
58
ITEM: NUMBER OF ATOMS
4
ITEM: BOX BOUNDS pp pp pp
0.1102 3.6898
0.190872 6.39092
0.179956 6.02542
ITEM: ATOMS id type x y z 
1 1 0.1102 0.190872 0.179956 
2 1 1.9 3.2909 0.179956 
3 1 0.1102 4.32424 3.10269 
4 1 1.9 1.22421 3.10269 
ITEM: TIMESTEP
59
ITEM: NUMBER OF ATOMS
4
ITEM: BOX BOUNDS pp pp pp
0.1121 3.6879
0.194163 6.38763
0.183059 6.02232
ITEM: ATOMS id type x y z 
1 1 0.1121 0.194163 0.183059 
2 1 1.9 3.2909 0.183059 
3 1 0.1121 4.32314 3.10269 
4 1 1.9 1.22641 3.10269 
ITEM: TIMESTEP
60
ITEM: NUMBER OF ATOMS
4
ITEM: BOX BOUNDS pp pp pp
0.114 3.686
0.197454 6.38434
0.186161 6.01921
ITEM: ATOMS id type x y z 
1 1 0.114 0.197454 0.186161 
2 1 1.9 3.2909 0.186161 
3 1 0.114 4.32204 3.10269 
4 1 1.9 1.2286 3.10269 
ITEM: TIMESTEP
61
ITEM: NUMBER OF ATOMS
4
ITEM: BOX BOUNDS pp pp pp
0.1159 3.6841
0.200745 6.38105
0.189264 6.01611
ITEM: ATOMS id type x y z 
1 1 0.1159 0.200745 0.189264 
2 1 1.9 3.2909 0.189264 
3 1 0.1159 4.32095 3.10269 
4 1 1.9 1.2308 3.10269 
ITEM: TIMESTEP
62
ITEM: NUMBER OF ATOMS
4
ITEM: BOX BOUNDS pp pp pp
0.1178 3.6822
0.204036 6.37776
0.192367 6.01301
ITEM: ATOMS id type x y z 
1 1 0.1178 0.204036 0.192367 
2 1 1.9 3.2909 0.192367 
3 1 0.1178 4.31985 3.10269 
4 1 1.9 1.23299 3.10269 
ITEM: TIMESTEP
63
ITEM: NUMBER OF ATOMS
4
ITEM: BOX BOUNDS pp pp pp
0.1197 3.6803
0.207326 6.37447
0.195469 6.0099
ITEM: ATOMS id type x y z 
1 1 0.1197 0.207326 0.195469 
2 1 1.9 3.2909 0.195469 
3 1 0.1197 4.31875 3.10269 
4 1 1.9 1.23518 3.10269 
ITEM: TIMESTEP
64
ITEM: NUMBER OF ATOMS
4
ITEM: BOX BOUNDS pp pp pp
0.1216 3.6784
0.210617 6.37118
0.198572 6.0068
ITEM: ATOMS id type x y z 
1 1 0.1216 0.210617 0.198572 
2 1 1.9 3.2909 0.198572 
3 1 0.1216 4.31766 3.10269 
4 1 1.9 1.23738 3.10269 
ITEM: TIMESTEP
65
ITEM: NUMBER OF ATOMS
4
ITEM: BOX BOUNDS pp pp pp
0.1235 3.6765
0.213908 6.36788
0.201675 6.0037
ITEM: ATOMS id type x y z 
1 1 0.1235 0.213908 0.201675 
2 1 1.9 3.2909 0.201675 
3 1 0.1235 4.31656 3.10269 
4 1 1.9 1.23957 3.10269 
ITEM: TIMESTEP
66
ITEM: NUMBER OF ATOMS
4
ITEM: BOX BOUNDS pp pp pp
0.1254 3.6746
0.217199 6.36459
0.204777 6.0006
ITEM: ATOMS id type x y z 
1 1 0.1254 0.217199 0.204777 
2 1 1.9 3.2909 0.204777 
3 1 0.1254 4.31546 3.10269 
4 1 1.9 1.24176 3.10269 
ITEM: TIMESTEP
67
ITEM: NUMBER OF ATOMS
4
ITEM: BOX BOUNDS pp pp pp
0.1273 3.6727
0.22049 6.3613
0.20788 5.99749
ITEM: ATOMS id type x y z 
1 1 0.1273 0.22049 0.20788 
2 1 1.9 3.2909 0.20788 
3 1 0.1273 4.31437 3.10269 
4 1 1.9 1.24396 3.10269 
ITEM: TIMESTEP
68
ITEM: NUMBER OF ATOMS
4
ITEM: BOX BOUNDS pp pp pp
0.1292 3.6708
0.223781 6.35801
0.210983 5.99439
ITEM: ATOMS id type x y z 
1 1 0.1292 0.223781 0.210983 
2 1 1.9 3.2909 0.210983 
3 1 0.1292 4.31327 3.10269 
4 1 1.9 1.24615 3.10269 
ITEM: TIMESTEP
69
ITEM: NUMBER OF ATOMS
4
ITEM: BOX BOUNDS pp pp pp
0.1311 3.6689
0.227072 6.35472
0.214085 5.99129
ITEM: ATOMS id type x y z 
1 1 0.1311 0.227072 0.214085 
2 1 1.9 3.2909 0.214085 
3 1 0.1311 4.31217 3.10269 
4 1 1.9 1.24835 3.10269 
ITEM: TIMESTEP
70
ITEM: NUMBER OF ATOMS
4
ITEM: BOX BOUNDS pp pp pp
0.133 3.667
0.230363 6.35143
0.217188 5.98819
ITEM: ATOMS id type x y z 
1 1 0.133 0.230363 0.217188 
2 1 1.9 3.2909 0.217188 
3 1 0.133 4.31107 3.10269 
4 1 1.9 1.25054 3.10269 
ITEM: TIMESTEP
71
ITEM: NUMBER OF ATOMS
4
ITEM: BOX BOUNDS pp pp pp
0.1349 3.6651
0.233654 6.34814
0.220291 5.98508
ITEM: ATOMS id type x y z 
1 1 0.1349 0.233654 0.220291 
2 1 1.9 3.2909 0.220291 
3 1 0.1349 4.30998 3.10269 
4 1 1.9 1.25273 3.10269 
ITEM: TIMESTEP
72
ITEM: NUMBER OF ATOMS
4
ITEM: BOX BOUNDS pp pp pp
0.1368 3.6632
0.236945 6.34485
0.223393 5.98198
ITEM: ATOMS id type x y z 
1 1 0.1368 0.236945 0.223393 
2 1 1.9 3.2909 0.223393 
3 1 0.1368 4.30888 3.10269 
4 1 1.9 1.25493 3.10269 
ITEM: TIMESTEP
73
ITEM: NUMBER OF ATOMS
4
ITEM: BOX BOUNDS pp pp pp
0.1387 3.6613
0.240235 6.34156
0.226496 5.97888
ITEM: ATOMS id type x y z 
1 1 0.1387 0.240235 0.226496 
2 1 1.9 3.2909 0.226496 
3 1 0.1387 4.30778 3.10269 
4 1 1.9 1.25712 3.10269 
ITEM: TIMESTEP
74
ITEM: NUMBER OF ATOMS
4
ITEM: BOX BOUNDS pp pp pp
0.1406 3.6594
0.243526 6.33827
0.229599 5.97578
ITEM: ATOMS id type x y z 
1 1 0.1406 0.243526 0.229599 
2 1 1.9 3.2909 0.229599 
3 1 0.1406 4.30669 3.10269 
4 1 1.9 1.25932 3.10269 
ITEM: TIMESTEP
75
ITEM: NUMBER OF ATOMS
4
ITEM: BOX BOUNDS pp pp pp
0.1425 3.6575
0.246817 6.33498
0.232702 5.97267
ITEM: ATOMS id type x y z 
1 1 0.1425 0.246817 0.232702 
2 1 1.9 3.2909 0.232702 
3 1 0.1425 4.30559 3.10269 
4 1 1.9 1.26151 3.10269 
ITEM: TIMESTEP
76
ITEM: NUMBER OF ATOMS
4
ITEM: BOX BOUNDS pp pp pp
0.1444 3.6556
0.250108 6.33168
0.235804 5.96957
ITEM: ATOMS id type x y z 
1 1 0.1444 0.250108 0.235804 
2 1 1.9 3.2909 0.235804 
3 1 0.1444 4.30449 3.10269 
4 1 1.9 1.2637 3.10269 
ITEM: TIMESTEP
77
ITEM: NUMBER OF ATOMS
4
ITEM: BOX BOUNDS pp pp pp
0.1463 3.6537
0.253399 6.32839
0.238907 5.96647
ITEM: ATOMS id type x y z 
1 1 0.1463 0.253399 0.238907 
2 1 1.9 3.2909 0.238907 
3 1 0.1463 4.3034 3.10269 
4 1 1.9 1.2659 3.10269 
ITEM: TIMESTEP
78
ITEM: NUMBER OF ATOMS
4
ITEM: BOX BOUNDS pp pp pp
0.1482 3.6518
0.25669 6.3251
0.24201 5.96336
ITEM: ATOMS id type x y z 
1 1 0.1482 0.25669 0.24201 
2 1 1.9 3.2909 0.24201 
3 1 0.1482 4.3023 3.10269 
4 1 1.9 1.26809 3.10269 
ITEM: TIMESTEP
79
ITEM: NUMBER OF ATOMS
4
ITEM: BOX BOUNDS pp pp pp
0.1501 3.6499
0.259981 6.32181
0.245112 5.96026
ITEM: ATOMS id type x y z 
1 1 0.1501 0.259981 0.245112 
2 1 1.9 3.2909 0.245112 
3 1 0.1501 4.3012 3.10269 
4 1 1.9 1.27029 3.10269 
ITEM: TIMESTEP
80
ITEM: NUMBER OF ATOMS
4
ITEM: BOX BOUNDS pp pp pp
0.152 3.648
0.263272 6.31852
0.248215 5.95716
ITEM: ATOMS id type x y z 
1 1 0.152 0.263272 0.248215 
2 1 1.9 3.2909 0.248215 
3 1 0.152 4.3001 3.10269 
4 1 1.9 1.27248 3.10269 
ITEM: TIMESTEP
81
ITEM: NUMBER OF ATOMS
4
ITEM: BOX BOUNDS pp pp pp
0.1539 3.6461
0.266563 6.31523
0.251318 5.95406
ITEM: ATOMS id type x y z 
1 1 0.1539 0.266563 0.251318 
2 1 1.9 3.2909 0.251318 
3 1 0.1539 4.29901 3.10269 
4 1 1.9 1.27467 3.10269 
ITEM: TIMESTEP
82
ITEM: NUMBER OF ATOMS
4
ITEM: BOX BOUNDS pp pp pp
0.1558 3.6442
0.269854 6.31194
0.25442 5.95095
ITEM: ATOMS id type x y z 
1 1 0.1558 0.269854 0.25442 
2 1 1.9 3.2909 0.25442 
3 1 0.1558 4.29791 3.10269 
4 1 1.9 1.27687 3.10269 
ITEM: TIMESTEP
83
ITEM: NUMBER OF ATOMS
4
ITEM: BOX BOUNDS pp pp pp
0.1577 3.6423
0.273144 6.30865
0.257523 5.94785
ITEM: ATOMS id type x y z 
1 1 0.1577 0.273144 0.257523 
2 1 1.9 3.2909 0.257523 
3 1 0.1577 4.29681 3.10269 
4 1 1.9 1.27906 3.10269 
ITEM: TIMESTEP
84
ITEM: NUMBER OF ATOMS
4
ITEM: BOX BOUNDS pp pp pp
0.1596 3.6404
0.276435 6.30536
0.260626 5.94475
ITEM: ATOMS id type x y z 
1 1 0.1596 0.276435 0.260626 
2 1 1.9 3.2909 0.260626 
3 1 0.1596 4.29572 3.10269 
4 1 1.9 1.28126 3.10269 
ITEM: TIMESTEP
85
ITEM: NUMBER OF ATOMS
4
ITEM: BOX BOUNDS pp pp pp
0.1615 3.6385
0.279726 6.30207
0.263728 5.94165
ITEM: ATOMS id type x y z 
1 1 0.1615 0.279726 0.263728 
2 1 1.9 3.2909 0.263728 
3 1 0.1615 4.29462 3.10269 
4 1 1.9 1.28345 3.10269 
ITEM: TIMESTEP
86
ITEM: NUMBER OF ATOMS
4
ITEM: BOX BOUNDS pp pp pp
0.1634 3.6366
0.283017 6.29878
0.266831 5.93854
ITEM: ATOMS id type x y z 
1 1 0.1634 0.283017 0.266831 
2 1 1.9 3.2909 0.266831 
3 1 0.1634 4.29352 3.10269 
4 1 1.9 1.28564 3.10269 
ITEM: TIMESTEP
87
ITEM: NUMBER OF ATOMS
4
ITEM: BOX BOUNDS pp pp pp
0.1653 3.6347
0.286308 6.29549
0.269934 5.93544
ITEM: ATOMS id type x y z 
1 1 0.1653 0.286308 0.269934 
2 1 1.9 3.2909 0.269934 
3 1 0.1653 4.29243 3.10269 
4 1 1.9 1.28784 3.10269 
ITEM: TIMESTEP
88
ITEM: NUMBER OF ATOMS
4
ITEM: BOX BOUNDS pp pp pp
0.1672 3.6328
0.289599 6.29219
0.273036 5.93234
ITEM: ATOMS id type x y z 
1 1 0.1672 0.289599 0.273036 
2 1 1.9 3.2909 0.273036 
3 1 0.1672 4.29133 3.10269 
4 1 1.9 1.29003 3.10269 
ITEM: TIMESTEP
89
ITEM: NUMBER OF ATOMS
4
ITEM: BOX BOUNDS pp pp pp
0.1691 3.6309
0.29289 6.2889
0.276139 5.92923
ITEM: ATOMS id type x y z 
1 1 0.1691 0.29289 0.276139 
2 1 1.9 3.2909 0.276139 
3 1 0.1691 4.29023 3.10269 
4 1 1.9 1.29223 3.10269 
ITEM: TIMESTEP
90
ITEM: NUMBER OF ATOMS
4
ITEM: BOX BOUNDS pp pp pp
0.171 3.629
0.296181 6.28561
0.279242 5.92613
ITEM: ATOMS id type x y z 
1 1 0.171 0.296181 0.279242 
2 1 1.9 3.2909 0.279242 
3 1 0.171 4.28914 3.10269 
4 1 1.9 1.29442 3.10269 
ITEM: TIMESTEP
91
ITEM: NUMBER OF ATOMS
4
ITEM: BOX BOUNDS pp pp pp
0.1729 3.6271
0.299472 6.28232
0.282345 5.92303
ITEM: ATOMS id type x y z 
1 1 0.1729 0.299472 0.282345 
2 1 1.9 3.2909 0.282345 
3 1 0.1729 4.28804 3.10269 
4 1 1.9 1.29661 3.10269 
ITEM: TIMESTEP
92
ITEM: NUMBER OF ATOMS
4
ITEM: BOX BOUNDS pp pp pp
0.1748 3.6252
0.302762 6.27903
0.285447 5.91993
ITEM: ATOMS id type x y z 
1 1 0.1748 0.302762 0.285447 
2 1 1.9 3.2909 0.285447 
3 1 0.1748 4.28694 3.10269 
4 1 1.9 1.29881 3.10269 
ITEM: TIMESTEP
93
ITEM: NUMBER OF ATOMS
4
ITEM: BOX BOUNDS pp pp pp
0.1767 3.6233
0.306053 6.27574
0.28855 5.91682
ITEM: ATOMS id type x y z 
1 1 0.1767 0.306053 0.28855 
2 1 1.9 3.2909 0.28855 
3 1 0.1767 4.28584 3.10269 
4 1 1.9 1.301 3.10269 
ITEM: TIMESTEP
94
ITEM: NUMBER OF ATOMS
4
ITEM: BOX BOUNDS pp pp pp
0.1786 3.6214
0.309344 6.27245
0.291653 5.91372
ITEM: ATOMS id type x y z 
1 1 0.1786 0.309344 0.291653 
2 1 1.9 3.2909 0.291653 
3 1 0.1786 4.28475 3.10269 
4 1 1.9 1.3032 3.10269 
ITEM: TIMESTEP
95
ITEM: NUMBER OF ATOMS
4
ITEM: BOX BOUNDS pp pp pp
0.1805 3.6195
0.312635 6.26916
0.294755 5.91062
ITEM: ATOMS id type x y z 
1 1 0.1805 0.312635 0.294755 
2 1 1.9 3.2909 0.294755 
3 1 0.1805 4.28365 3.10269 
4 1 1.9 1.30539 3.10269 
ITEM: TIMESTEP
96
ITEM: NUMBER OF ATOMS
4
ITEM: BOX BOUNDS pp pp pp
0.1824 3.6176
0.315926 6.26587
0.297858 5.90752
ITEM: ATOMS id type x y z 
1 1 0.1824 0.315926 0.297858 
2 1 1.9 3.2909 0.297858 
3 1 0.1824 4.28255 3.10269 
4 1 1.9 1.30758 3.10269 
ITEM: TIMESTEP
97
ITEM: NUMBER OF ATOMS
4
ITEM: BOX BOUNDS pp pp pp
0.1843 3.6157
0.319217 6.26258
0.300961 5.90441
ITEM: ATOMS id type x y z 
1 1 0.1843 0.319217 0.300961 
2 1 1.9 3.2909 0.300961 
3 1 0.1843 4.28146 3.10269 
4 1 1.9 1.30978 3.10269 
ITEM: TIMESTEP
98
ITEM: NUMBER OF ATOMS
4
ITEM: BOX BOUNDS pp pp pp
0.1862 3.6138
0.322508 6.25929
0.304063 5.90131
ITEM: ATOMS id type x y z 
1 1 0.1862 0.322508 0.304063 
2 1 1.9 3.2909 0.304063 
3 1 0.1862 4.28036 3.10269 
4 1 1.9 1.31197 3.10269 
ITEM: TIMESTEP
99
ITEM: NUMBER OF ATOMS
4
ITEM: BOX BOUNDS pp pp pp
0.1881 3.6119
0.325799 6.25599
0.307166 5.89821
ITEM: ATOMS id type x y z 
1 1 0.1881 0.325799 0.307166 
2 1 1.9 3.2909 0.307166 
3 1 0.1881 4.27926 3.10269 
4 1 1.9 1.31416 3.10269 
ITEM: TIMESTEP
100
ITEM: NUMBER OF ATOMS
4
ITEM: BOX BOUNDS pp pp pp
0.19 3.61
0.32909 6.2527
0.310269 5.89511
ITEM: ATOMS id type x y z 
1 1 0.19 0.32909 0.310269 
2 1 1.9 3.2909 0.310269 
3 1 0.19 4.27817 3.10269 
4 1 1.9 1.31636 3.10269 
ITEM: TIMESTEP
101
ITEM: NUMBER OF ATOMS
4
ITEM: BOX BOUNDS pp pp pp
0.1919 3.6081
0.332381 6.24941
0.313371 5.892
ITEM: ATOMS id type x y z 
1 1 0.1919 0.332381 0.313371 
2 1 1.9 3.2909 0.313371 
3 1 0.1919 4.27707 3.10269 
4 1 1.9 1.31855 3.10269 
ITEM: TIMESTEP
102
ITEM: NUMBER OF ATOMS
4
ITEM: BOX BOUNDS pp pp pp
0.1938 3.6062
0.335671 6.24612
0.316474 5.8889
ITEM: ATOMS id type x y z 
1 1 0.1938 0.335671 0.316474 
2 1 1.9 3.2909 0.316474 
3 1 0.1938 4.27597 3.10269 
4 1 1.9 1.32075 3.10269 
ITEM: TIMESTEP
103
ITEM: NUMBER OF ATOMS
4
ITEM: BOX BOUNDS pp pp pp
0.1957 3.6043
0.338962 6.24283
0.319577 5.8858
ITEM: ATOMS id type x y z 
1 1 0.1957 0.338962 0.319577 
2 1 1.9 3.2909 0.319577 
3 1 0.1957 4.27487 3.10269 
4 1 1.9 1.32294 3.10269 
ITEM: TIMESTEP
104
ITEM: NUMBER OF ATOMS
4
ITEM: BOX BOUNDS pp pp pp
0.1976 3.6024
0.342253 6.23954
0.322679 5.88269
ITEM: ATOMS id type x y z 
1 1 0.1976 0.342253 0.322679 
2 1 1.9 3.2909 0.322679 
3 1 0.1976 4.27378 3.10269 
4 1 1.9 1.32513 3.10269 
ITEM: TIMESTEP
105
ITEM: NUMBER OF ATOMS
4
ITEM: BOX BOUNDS pp pp pp
0.1995 3.6005
0.345544 6.23625
0.325782 5.87959
ITEM: ATOMS id type x y z 
1 1 0.1995 0.345544 0.325782 
2 1 1.9 3.2909 0.325782 
3 1 0.1995 4.27268 3.10269 
4 1 1.9 1.32733 3.10269 
ITEM: TIMESTEP
106
ITEM: NUMBER OF ATOMS
4
ITEM: BOX BOUNDS pp pp pp
0.2014 3.5986
0.348835 6.23296
0.328885 5.87649
ITEM: ATOMS id type x y z 
1 1 0.2014 0.348835 0.328885 
2 1 1.9 3.2909 0.328885 
3 1 0.2014 4.27158 3.10269 
4 1 1.9 1.32952 3.10269 
ITEM: TIMESTEP
107
ITEM: NUMBER OF ATOMS
4
ITEM: BOX BOUNDS pp pp pp
0.2033 3.5967
0.352126 6.22967
0.331988 5.87339
ITEM: ATOMS id type x y z 
1 1 0.2033 0.352126 0.331988 
2 1 1.9 3.2909 0.331988 
3 1 0.2033 4.27049 3.10269 
4 1 1.9 1.33172 3.10269 
ITEM: TIMESTEP
108
ITEM: NUMBER OF ATOMS
4
ITEM: BOX BOUNDS pp pp pp
0.2052 3.5948
0.355417 6.22638
0.33509 5.87028
ITEM: ATOMS id type x y z 
1 1 0.2052 0.355417 0.33509 
2 1 1.9 3.2909 0.33509 
3 1 0.2052 4.26939 3.10269 
4 1 1.9 1.33391 3.10269 
ITEM: TIMESTEP
109
ITEM: NUMBER OF ATOMS
4
ITEM: BOX BOUNDS pp pp pp
0.2071 3.5929
0.358708 6.22309
0.338193 5.86718
ITEM: ATOMS id type x y z 
1 1 0.2071 0.358708 0.338193 
2 1 1.9 3.2909 0.338193 
3 1 0.2071 4.26829 3.10269 
4 1 1.9 1.3361 3.10269 
ITEM: TIMESTEP
110
ITEM: NUMBER OF ATOMS
4
ITEM: BOX BOUNDS pp pp pp
0.209 3.591
0.361999 6.21979
0.341296 5.86408
ITEM: ATOMS id type x y z 
1 1 0.209 0.361999 0.341296 
2 1 1.9 3.2909 0.341296 
3 1 0.209 4.2672 3.10269 
4 1 1.9 1.3383 3.10269 
ITEM: TIMESTEP
111
ITEM: NUMBER OF ATOMS
4
ITEM: BOX BOUNDS pp pp pp
0.2109 3.5891
0.36529 6.2165
0.344398 5.86098
ITEM: ATOMS id type x y z 
1 1 0.2109 0.36529 0.344398 
2 1 1.9 3.2909 0.344398 
3 1 0.2109 4.2661 3.10269 
4 1 1.9 1.34049 3.10269 
ITEM: TIMESTEP
112
ITEM: NUMBER OF ATOMS
4
ITEM: BOX BOUNDS pp pp pp
0.2128 3.5872
0.36858 6.21321
0.347501 5.85787
ITEM: ATOMS id type x y z 
1 1 0.2128 0.36858 0.347501 
2 1 1.9 3.2909 0.347501 
3 1 0.2128 4.265 3.10269 
4 1 1.9 1.34269 3.10269 
ITEM: TIMESTEP
113
ITEM: NUMBER OF ATOMS
4
ITEM: BOX BOUNDS pp pp pp
0.2147 3.5853
0.371871 6.20992
0.350604 5.85477
ITEM: ATOMS id type x y z 
1 1 0.2147 0.371871 0.350604 
2 1 1.9 3.2909 0.350604 
3 1 0.2147 4.2639 3.10269 
4 1 1.9 1.34488 3.10269 
ITEM: TIMESTEP
114
ITEM: NUMBER OF ATOMS
4
ITEM: BOX BOUNDS pp pp pp
0.2166 3.5834
0.375162 6.20663
0.353706 5.85167
ITEM: ATOMS id type x y z 
1 1 0.2166 0.375162 0.353706 
2 1 1.9 3.2909 0.353706 
3 1 0.2166 4.26281 3.10269 
4 1 1.9 1.34707 3.10269 
ITEM: TIMESTEP
115
ITEM: NUMBER OF ATOMS
4
ITEM: BOX BOUNDS pp pp pp
0.2185 3.5815
0.378453 6.20334
0.356809 5.84857
ITEM: ATOMS id type x y z 
1 1 0.2185 0.378453 0.356809 
2 1 1.9 3.2909 0.356809 
3 1 0.2185 4.26171 3.10269 
4 1 1.9 1.34927 3.10269 
ITEM: TIMESTEP
116
ITEM: NUMBER OF ATOMS
4
ITEM: BOX BOUNDS pp pp pp
0.2204 3.5796
0.381744 6.20005
0.359912 5.84546
ITEM: ATOMS id type x y z 
1 1 0.2204 0.381744 0.359912 
2 1 1.9 3.2909 0.359912 
3 1 0.2204 4.26061 3.10269 
4 1 1.9 1.35146 3.10269 
ITEM: TIMESTEP
117
ITEM: NUMBER OF ATOMS
4
ITEM: BOX BOUNDS pp pp pp
0.2223 3.5777
0.385035 6.19676
0.363014 5.84236
ITEM: ATOMS id type x y z 
1 1 0.2223 0.385035 0.363014 
2 1 1.9 3.2909 0.363014 
3 1 0.2223 4.25952 3.10269 
4 1 1.9 1.35366 3.10269 
ITEM: TIMESTEP
118
ITEM: NUMBER OF ATOMS
4
ITEM: BOX BOUNDS pp pp pp
0.2242 3.5758
0.388326 6.19347
0.366117 5.83926
ITEM: ATOMS id type x y z 
1 1 0.2242 0.388326 0.366117 
2 1 1.9 3.2909 0.366117 
3 1 0.2242 4.25842 3.10269 
4 1 1.9 1.35585 3.10269 
ITEM: TIMESTEP
119
ITEM: NUMBER OF ATOMS
4
ITEM: BOX BOUNDS pp pp pp
0.2261 3.5739
0.391617 6.19018
0.36922 5.83615
ITEM: ATOMS id type x y z 