thermo_style    custom step atoms pe ke etotal press vol lx ly lz
thermo_modify   line one format float %.16g
fix             1 all box/relax iso 0.0 vmax 0.001
min_style       cg
min_modify      line quadratic
minimize        1.0e-14 1.0e-14 100000 1000000
WARNING: Resetting reneighboring criteria during minimization (../min.cpp:168)
Neighbor list info ...
  2 neighbor list requests
  update every 1 steps, delay 0 steps, check yes
  master list distance cutoff = 6.8
Memory usage per processor = 9.16968 Mbytes
Step Atoms PotEng KinEng TotEng Press Volume Lx Ly Lz 
       0        4 -5.618979584189257 0 -5.618979584189257 -27867.54309456801 155.2014531890729 3.8 6.581793068761733 6.205374015050718 
     186        4 -6.593760402218674 0 -6.593760402218674 -4.918592958648091e-11 84.60932345152797 3.104257527855104 5.376731758023229 5.06923131562564 
Loop time of 0.0182428 on 1 procs for 186 steps with 4 atoms

Minimization stats:
  Stopping criterion = energy tolerance
  Energy initial, next-to-last, final = 
        -5.61897958419     -6.59376040222     -6.59376040222
  Force two-norm initial, final = 8.09851 2.032e-14
  Force max component initial, final = 8.09851 1.06291e-14
  Final line search alpha, max atom move = 1 1.06291e-14
  Iterations, force evaluations = 186 189

Pair  time (%) = 0.0150139 (82.3004)
Neigh time (%) = 1.40667e-05 (0.0771081)
Comm  time (%) = 0.000247955 (1.35919)
Outpt time (%) = 0.00206017 (11.2931)
Other time (%) = 0.000906706 (4.9702)

Nlocal:    4 ave 4 max 4 min
Histogram: 1 0 0 0 0 0 0 0 0 0
Nghost:    201 ave 201 max 201 min
Histogram: 1 0 0 0 0 0 0 0 0 0
Neighs:    100 ave 100 max 100 min
Histogram: 1 0 0 0 0 0 0 0 0 0
FullNghs:  200 ave 200 max 200 min
Histogram: 1 0 0 0 0 0 0 0 0 0

Total # of neighbors = 200
Ave neighs/atom = 50
Neighbor list builds = 1
Dangerous builds = 0
