 
 16 atoms 
 
 1 atom types
 0.00000000000000000000 7.01799999999999979394 xlo xhi
 0.00000000000000000000 7.01799999999999979394 ylo yhi
 0.00000000000000000000 7.01799999999999979394 zlo zhi
 0.00000000000000000000 0.00000000000000000000 0.00000000000000000000 xy xz yz
 
 Atoms 
 
	1	1	0.00000000000000000000	0.00000000000000000000	0.00000000000000000000
	2	1	1.75449999999999994849	1.75449999999999994849	1.75449999999999994849
	3	1	0.00000000000000000000	0.00000000000000000000	3.50899999999999989697
	4	1	1.75449999999999994849	1.75449999999999994849	5.26349999999999962341
	5	1	0.00000000000000000000	3.50899999999999989697	0.00000000000000000000
	6	1	1.75449999999999994849	5.26349999999999962341	1.75449999999999994849
	7	1	0.00000000000000000000	3.50899999999999989697	3.50899999999999989697
	8	1	1.75449999999999994849	5.26349999999999962341	5.26349999999999962341
	9	1	3.50899999999999989697	0.00000000000000000000	0.00000000000000000000
	10	1	5.26349999999999962341	1.75449999999999994849	1.75449999999999994849
	11	1	3.50899999999999989697	0.00000000000000000000	3.50899999999999989697
	12	1	5.26349999999999962341	1.75449999999999994849	5.26349999999999962341
	13	1	3.50899999999999989697	3.50899999999999989697	0.00000000000000000000
	14	1	5.26349999999999962341	5.26349999999999962341	1.75449999999999994849
	15	1	3.50899999999999989697	3.50899999999999989697	3.50899999999999989697
	16	1	5.26349999999999962341	5.26349999999999962341	5.26349999999999962341
