ITEM: TIMESTEP
0
ITEM: NUMBER OF ATOMS
16
ITEM: BOX BOUNDS xy xz yz pp pp pp
0 7.018 0
0 7.018 0
0 7.018 0
ITEM: ATOMS id type x y z 
1 1 0 0 0 
2 1 1.7545 1.7545 1.7545 
3 1 0 0 3.509 
4 1 1.7545 1.7545 5.2635 
5 1 0 3.509 0 
6 1 1.7545 5.2635 1.7545 
7 1 0 3.509 3.509 
8 1 1.7545 5.2635 5.2635 
9 1 3.509 0 0 
10 1 5.2635 1.7545 1.7545 
11 1 3.509 0 3.509 
12 1 5.2635 1.7545 5.2635 
13 1 3.509 3.509 0 
14 1 5.2635 5.2635 1.7545 
15 1 3.509 3.509 3.509 
16 1 5.2635 5.2635 5.2635 
ITEM: TIMESTEP
13
ITEM: NUMBER OF ATOMS
16
ITEM: BOX BOUNDS xy xz yz pp pp pp
0.0217196 6.99628 0
0.0217196 6.99628 0
0.0217196 6.99628 0
ITEM: ATOMS id type x y z 
1 1 0.0217196 0.0217196 0.0217196 
2 1 1.76536 1.76536 1.76536 
3 1 0.0217196 0.0217196 3.509 
4 1 1.76536 1.76536 5.25264 
5 1 0.0217196 3.509 0.0217196 
6 1 1.76536 5.25264 1.76536 
7 1 0.0217196 3.509 3.509 
8 1 1.76536 5.25264 5.25264 
9 1 3.509 0.0217196 0.0217196 
10 1 5.25264 1.76536 1.76536 
11 1 3.509 0.0217196 3.509 
12 1 5.25264 1.76536 5.25264 
13 1 3.509 3.509 0.0217196 
14 1 5.25264 5.25264 1.76536 
15 1 3.509 3.509 3.509 
16 1 5.25264 5.25264 5.25264 
