 
 288 atoms 
 
 1 atom types
 0.00000000000000000000 13.30317879612521281274 xlo xhi
 0.00000000000000000000 7.68059385902061375617 ylo yhi
 0.00000000000000000000 56.44060762846336842813 zlo zhi
 
 Atoms 
 
	1	1	0.00000000000000000000	0.00000000000000000000	0.00000000000000000000
	2	1	0.00000000000000000000	0.00000000000000000000	7.05507595355792105352
	3	1	2.21719646602086895015	0.00000000000000000000	0.78389732817310242563
	4	1	2.21719646602086895015	0.00000000000000000000	3.13558931269240970252
	5	1	4.43439293204173790031	0.00000000000000000000	3.91948664086551223917
	6	1	4.43439293204173790031	0.00000000000000000000	6.27117862538481940504
	7	1	1.10859823301043447508	1.92014846475515343904	3.91948664086551223917
	8	1	1.10859823301043447508	1.92014846475515343904	6.27117862538481940504
	9	1	3.32579469903130320318	1.92014846475515343904	0.00000000000000000000
	10	1	3.32579469903130320318	1.92014846475515343904	7.05507595355792105352
	11	1	5.54299116505217170925	1.92014846475515343904	0.78389732817310242563
	12	1	5.54299116505217170925	1.92014846475515343904	3.13558931269240970252
	13	1	0.00000000000000000000	0.00000000000000000000	9.40676793807722866347
	14	1	0.00000000000000000000	0.00000000000000000000	16.46184389163514794063
	15	1	2.21719646602086895015	0.00000000000000000000	10.19066526625033120013
	16	1	2.21719646602086895015	0.00000000000000000000	12.54235725076963881008
	17	1	4.43439293204173790031	0.00000000000000000000	13.32625457894274134674
	18	1	4.43439293204173790031	0.00000000000000000000	15.67794656346204718034
	19	1	1.10859823301043447508	1.92014846475515343904	13.32625457894274134674
	20	1	1.10859823301043447508	1.92014846475515343904	15.67794656346204718034
	21	1	3.32579469903130320318	1.92014846475515343904	9.40676793807722866347
	22	1	3.32579469903130320318	1.92014846475515343904	16.46184389163514794063
	23	1	5.54299116505217170925	1.92014846475515343904	10.19066526625033120013
	24	1	5.54299116505217170925	1.92014846475515343904	12.54235725076963881008
	25	1	0.00000000000000000000	0.00000000000000000000	18.81353587615445732695
	26	1	0.00000000000000000000	0.00000000000000000000	25.86861182971237838046
	27	1	2.21719646602086895015	0.00000000000000000000	19.59743320432755808724
	28	1	2.21719646602086895015	0.00000000000000000000	21.94912518884686747356
	29	1	4.43439293204173790031	0.00000000000000000000	22.73302251701996823385
	30	1	4.43439293204173790031	0.00000000000000000000	25.08471450153927762017
	31	1	1.10859823301043447508	1.92014846475515343904	22.73302251701996823385
	32	1	1.10859823301043447508	1.92014846475515343904	25.08471450153927762017
	33	1	3.32579469903130320318	1.92014846475515343904	18.81353587615445732695
	34	1	3.32579469903130320318	1.92014846475515343904	25.86861182971237838046
	35	1	5.54299116505217170925	1.92014846475515343904	19.59743320432755808724
	36	1	5.54299116505217170925	1.92014846475515343904	21.94912518884686747356
	37	1	0.00000000000000000000	0.00000000000000000000	28.22030381423168421406
	38	1	0.00000000000000000000	0.00000000000000000000	35.27537976778960171487
	39	1	2.21719646602086895015	0.00000000000000000000	29.00420114240478497436
	40	1	2.21719646602086895015	0.00000000000000000000	31.35589312692409436067
	41	1	4.43439293204173790031	0.00000000000000000000	32.13979045509719867368
	42	1	4.43439293204173790031	0.00000000000000000000	34.49148243961650450728
	43	1	1.10859823301043447508	1.92014846475515343904	32.13979045509719867368
	44	1	1.10859823301043447508	1.92014846475515343904	34.49148243961650450728
	45	1	3.32579469903130320318	1.92014846475515343904	28.22030381423168421406
	46	1	3.32579469903130320318	1.92014846475515343904	35.27537976778960171487
	47	1	5.54299116505217170925	1.92014846475515343904	29.00420114240478497436
	48	1	5.54299116505217170925	1.92014846475515343904	31.35589312692409436067
	49	1	0.00000000000000000000	0.00000000000000000000	37.62707175230891465390
	50	1	0.00000000000000000000	0.00000000000000000000	44.68214770586683926012
	51	1	2.21719646602086895015	0.00000000000000000000	38.41096908048201896690
	52	1	2.21719646602086895015	0.00000000000000000000	40.76266106500132480051
	53	1	4.43439293204173790031	0.00000000000000000000	41.54655839317442911351
	54	1	4.43439293204173790031	0.00000000000000000000	43.89825037769373494712
	55	1	1.10859823301043447508	1.92014846475515343904	41.54655839317442911351
	56	1	1.10859823301043447508	1.92014846475515343904	43.89825037769373494712
	57	1	3.32579469903130320318	1.92014846475515343904	37.62707175230891465390
	58	1	3.32579469903130320318	1.92014846475515343904	44.68214770586683926012
	59	1	5.54299116505217170925	1.92014846475515343904	38.41096908048201896690
	60	1	5.54299116505217170925	1.92014846475515343904	40.76266106500132480051
	61	1	0.00000000000000000000	0.00000000000000000000	47.03383969038614509373
	62	1	0.00000000000000000000	0.00000000000000000000	54.08891564394406259453
	63	1	2.21719646602086895015	0.00000000000000000000	47.81773701855924940674
	64	1	2.21719646602086895015	0.00000000000000000000	50.16942900307855524034
	65	1	4.43439293204173790031	0.00000000000000000000	50.95332633125165955335
	66	1	4.43439293204173790031	0.00000000000000000000	53.30501831577096538695
	67	1	1.10859823301043447508	1.92014846475515343904	50.95332633125165955335
	68	1	1.10859823301043447508	1.92014846475515343904	53.30501831577096538695
	69	1	3.32579469903130320318	1.92014846475515343904	47.03383969038614509373
	70	1	3.32579469903130320318	1.92014846475515343904	54.08891564394406259453
	71	1	5.54299116505217170925	1.92014846475515343904	47.81773701855924940674
	72	1	5.54299116505217170925	1.92014846475515343904	50.16942900307855524034
	73	1	0.00000000000000000000	3.84029692951030687809	0.00000000000000000000
	74	1	0.00000000000000000000	3.84029692951030687809	7.05507595355792105352
	75	1	2.21719646602086895015	3.84029692951030687809	0.78389732817310242563
	76	1	2.21719646602086895015	3.84029692951030687809	3.13558931269240970252
	77	1	4.43439293204173790031	3.84029692951030687809	3.91948664086551223917
	78	1	4.43439293204173790031	3.84029692951030687809	6.27117862538481940504
	79	1	1.10859823301043447508	5.76044539426546009508	3.91948664086551223917
	80	1	1.10859823301043447508	5.76044539426546009508	6.27117862538481940504
	81	1	3.32579469903130320318	5.76044539426546009508	0.00000000000000000000
	82	1	3.32579469903130320318	5.76044539426546009508	7.05507595355792105352
	83	1	5.54299116505217170925	5.76044539426546009508	0.78389732817310242563
	84	1	5.54299116505217170925	5.76044539426546009508	3.13558931269240970252
	85	1	0.00000000000000000000	3.84029692951030687809	9.40676793807722866347
	86	1	0.00000000000000000000	3.84029692951030687809	16.46184389163514794063
	87	1	2.21719646602086895015	3.84029692951030687809	10.19066526625033120013
	88	1	2.21719646602086895015	3.84029692951030687809	12.54235725076963881008
	89	1	4.43439293204173790031	3.84029692951030687809	13.32625457894274134674
	90	1	4.43439293204173790031	3.84029692951030687809	15.67794656346204718034
	91	1	1.10859823301043447508	5.76044539426546009508	13.32625457894274134674
	92	1	1.10859823301043447508	5.76044539426546009508	15.67794656346204718034
	93	1	3.32579469903130320318	5.76044539426546009508	9.40676793807722866347
	94	1	3.32579469903130320318	5.76044539426546009508	16.46184389163514794063
	95	1	5.54299116505217170925	5.76044539426546009508	10.19066526625033120013
	96	1	5.54299116505217170925	5.76044539426546009508	12.54235725076963881008
	97	1	0.00000000000000000000	3.84029692951030687809	18.81353587615445732695
	98	1	0.00000000000000000000	3.84029692951030687809	25.86861182971237838046
	99	1	2.21719646602086895015	3.84029692951030687809	19.59743320432755808724
	100	1	2.21719646602086895015	3.84029692951030687809	21.94912518884686747356
	101	1	4.43439293204173790031	3.84029692951030687809	22.73302251701996823385
	102	1	4.43439293204173790031	3.84029692951030687809	25.08471450153927762017
	103	1	1.10859823301043447508	5.76044539426546009508	22.73302251701996823385
	104	1	1.10859823301043447508	5.76044539426546009508	25.08471450153927762017
	105	1	3.32579469903130320318	5.76044539426546009508	18.81353587615445732695
	106	1	3.32579469903130320318	5.76044539426546009508	25.86861182971237838046
	107	1	5.54299116505217170925	5.76044539426546009508	19.59743320432755808724
	108	1	5.54299116505217170925	5.76044539426546009508	21.94912518884686747356
	109	1	0.00000000000000000000	3.84029692951030687809	28.22030381423168421406
	110	1	0.00000000000000000000	3.84029692951030687809	35.27537976778960171487
	111	1	2.21719646602086895015	3.84029692951030687809	29.00420114240478497436
	112	1	2.21719646602086895015	3.84029692951030687809	31.35589312692409436067
	113	1	4.43439293204173790031	3.84029692951030687809	32.13979045509719867368
	114	1	4.43439293204173790031	3.84029692951030687809	34.49148243961650450728
	115	1	1.10859823301043447508	5.76044539426546009508	32.13979045509719867368
	116	1	1.10859823301043447508	5.76044539426546009508	34.49148243961650450728
	117	1	3.32579469903130320318	5.76044539426546009508	28.22030381423168421406
	118	1	3.32579469903130320318	5.76044539426546009508	35.27537976778960171487
	119	1	5.54299116505217170925	5.76044539426546009508	29.00420114240478497436
	120	1	5.54299116505217170925	5.76044539426546009508	31.35589312692409436067
	121	1	0.00000000000000000000	3.84029692951030687809	37.62707175230891465390
	122	1	0.00000000000000000000	3.84029692951030687809	44.68214770586683926012
	123	1	2.21719646602086895015	3.84029692951030687809	38.41096908048201896690
	124	1	2.21719646602086895015	3.84029692951030687809	40.76266106500132480051
	125	1	4.43439293204173790031	3.84029692951030687809	41.54655839317442911351
	126	1	4.43439293204173790031	3.84029692951030687809	43.89825037769373494712
	127	1	1.10859823301043447508	5.76044539426546009508	41.54655839317442911351
	128	1	1.10859823301043447508	5.76044539426546009508	43.89825037769373494712
	129	1	3.32579469903130320318	5.76044539426546009508	37.62707175230891465390
	130	1	3.32579469903130320318	5.76044539426546009508	44.68214770586683926012
	131	1	5.54299116505217170925	5.76044539426546009508	38.41096908048201896690
	132	1	5.54299116505217170925	5.76044539426546009508	40.76266106500132480051
	133	1	0.00000000000000000000	3.84029692951030687809	47.03383969038614509373
	134	1	0.00000000000000000000	3.84029692951030687809	54.08891564394406259453
	135	1	2.21719646602086895015	3.84029692951030687809	47.81773701855924940674
	136	1	2.21719646602086895015	3.84029692951030687809	50.16942900307855524034
	137	1	4.43439293204173790031	3.84029692951030687809	50.95332633125165955335
	138	1	4.43439293204173790031	3.84029692951030687809	53.30501831577096538695
	139	1	1.10859823301043447508	5.76044539426546009508	50.95332633125165955335
	140	1	1.10859823301043447508	5.76044539426546009508	53.30501831577096538695
	141	1	3.32579469903130320318	5.76044539426546009508	47.03383969038614509373
	142	1	3.32579469903130320318	5.76044539426546009508	54.08891564394406259453
	143	1	5.54299116505217170925	5.76044539426546009508	47.81773701855924940674
	144	1	5.54299116505217170925	5.76044539426546009508	50.16942900307855524034
	145	1	6.65158939806260640637	0.00000000000000000000	0.00000000000000000000
	146	1	6.65158939806260640637	0.00000000000000000000	7.05507595355792105352
	147	1	8.86878586408347580061	0.00000000000000000000	0.78389732817310242563
	148	1	8.86878586408347580061	0.00000000000000000000	3.13558931269240970252
	149	1	11.08598233010434341850	0.00000000000000000000	3.91948664086551223917
	150	1	11.08598233010434341850	0.00000000000000000000	6.27117862538481940504
	151	1	7.76018763107304110349	1.92014846475515343904	3.91948664086551223917
	152	1	7.76018763107304110349	1.92014846475515343904	6.27117862538481940504
	153	1	9.97738409709391049773	1.92014846475515343904	0.00000000000000000000
	154	1	9.97738409709391049773	1.92014846475515343904	7.05507595355792105352
	155	1	12.19458056311477811562	1.92014846475515343904	0.78389732817310242563
	156	1	12.19458056311477811562	1.92014846475515343904	3.13558931269240970252
	157	1	6.65158939806260640637	0.00000000000000000000	9.40676793807722866347
	158	1	6.65158939806260640637	0.00000000000000000000	16.46184389163514794063
	159	1	8.86878586408347580061	0.00000000000000000000	10.19066526625033120013
	160	1	8.86878586408347580061	0.00000000000000000000	12.54235725076963881008
	161	1	11.08598233010434341850	0.00000000000000000000	13.32625457894274134674
	162	1	11.08598233010434341850	0.00000000000000000000	15.67794656346204718034
	163	1	7.76018763107304110349	1.92014846475515343904	13.32625457894274134674
	164	1	7.76018763107304110349	1.92014846475515343904	15.67794656346204718034
	165	1	9.97738409709391049773	1.92014846475515343904	9.40676793807722866347
	166	1	9.97738409709391049773	1.92014846475515343904	16.46184389163514794063
	167	1	12.19458056311477811562	1.92014846475515343904	10.19066526625033120013
	168	1	12.19458056311477811562	1.92014846475515343904	12.54235725076963881008
	169	1	6.65158939806260640637	0.00000000000000000000	18.81353587615445732695
	170	1	6.65158939806260640637	0.00000000000000000000	25.86861182971237838046
	171	1	8.86878586408347580061	0.00000000000000000000	19.59743320432755808724
	172	1	8.86878586408347580061	0.00000000000000000000	21.94912518884686747356
	173	1	11.08598233010434341850	0.00000000000000000000	22.73302251701996823385
	174	1	11.08598233010434341850	0.00000000000000000000	25.08471450153927762017
	175	1	7.76018763107304110349	1.92014846475515343904	22.73302251701996823385
	176	1	7.76018763107304110349	1.92014846475515343904	25.08471450153927762017
	177	1	9.97738409709391049773	1.92014846475515343904	18.81353587615445732695
	178	1	9.97738409709391049773	1.92014846475515343904	25.86861182971237838046
	179	1	12.19458056311477811562	1.92014846475515343904	19.59743320432755808724
	180	1	12.19458056311477811562	1.92014846475515343904	21.94912518884686747356
	181	1	6.65158939806260640637	0.00000000000000000000	28.22030381423168421406
	182	1	6.65158939806260640637	0.00000000000000000000	35.27537976778960171487
	183	1	8.86878586408347580061	0.00000000000000000000	29.00420114240478497436
	184	1	8.86878586408347580061	0.00000000000000000000	31.35589312692409436067
	185	1	11.08598233010434341850	0.00000000000000000000	32.13979045509719867368
	186	1	11.08598233010434341850	0.00000000000000000000	34.49148243961650450728
	187	1	7.76018763107304110349	1.92014846475515343904	32.13979045509719867368
	188	1	7.76018763107304110349	1.92014846475515343904	34.49148243961650450728
	189	1	9.97738409709391049773	1.92014846475515343904	28.22030381423168421406
	190	1	9.97738409709391049773	1.92014846475515343904	35.27537976778960171487
	191	1	12.19458056311477811562	1.92014846475515343904	29.00420114240478497436
	192	1	12.19458056311477811562	1.92014846475515343904	31.35589312692409436067
	193	1	6.65158939806260640637	0.00000000000000000000	37.62707175230891465390
	194	1	6.65158939806260640637	0.00000000000000000000	44.68214770586683926012
	195	1	8.86878586408347580061	0.00000000000000000000	38.41096908048201896690
	196	1	8.86878586408347580061	0.00000000000000000000	40.76266106500132480051
	197	1	11.08598233010434341850	0.00000000000000000000	41.54655839317442911351
	198	1	11.08598233010434341850	0.00000000000000000000	43.89825037769373494712
	199	1	7.76018763107304110349	1.92014846475515343904	41.54655839317442911351
	200	1	7.76018763107304110349	1.92014846475515343904	43.89825037769373494712
	201	1	9.97738409709391049773	1.92014846475515343904	37.62707175230891465390
	202	1	9.97738409709391049773	1.92014846475515343904	44.68214770586683926012
	203	1	12.19458056311477811562	1.92014846475515343904	38.41096908048201896690
	204	1	12.19458056311477811562	1.92014846475515343904	40.76266106500132480051
	205	1	6.65158939806260640637	0.00000000000000000000	47.03383969038614509373
	206	1	6.65158939806260640637	0.00000000000000000000	54.08891564394406259453
	207	1	8.86878586408347580061	0.00000000000000000000	47.81773701855924940674
	208	1	8.86878586408347580061	0.00000000000000000000	50.16942900307855524034
	209	1	11.08598233010434341850	0.00000000000000000000	50.95332633125165955335
	210	1	11.08598233010434341850	0.00000000000000000000	53.30501831577096538695
	211	1	7.76018763107304110349	1.92014846475515343904	50.95332633125165955335
	212	1	7.76018763107304110349	1.92014846475515343904	53.30501831577096538695
	213	1	9.97738409709391049773	1.92014846475515343904	47.03383969038614509373
	214	1	9.97738409709391049773	1.92014846475515343904	54.08891564394406259453
	215	1	12.19458056311477811562	1.92014846475515343904	47.81773701855924940674
	216	1	12.19458056311477811562	1.92014846475515343904	50.16942900307855524034
	217	1	6.65158939806260640637	3.84029692951030687809	0.00000000000000000000
	218	1	6.65158939806260640637	3.84029692951030687809	7.05507595355792105352
	219	1	8.86878586408347580061	3.84029692951030687809	0.78389732817310242563
	220	1	8.86878586408347580061	3.84029692951030687809	3.13558931269240970252
	221	1	11.08598233010434341850	3.84029692951030687809	3.91948664086551223917
	222	1	11.08598233010434341850	3.84029692951030687809	6.27117862538481940504
	223	1	7.76018763107304110349	5.76044539426546009508	3.91948664086551223917
	224	1	7.76018763107304110349	5.76044539426546009508	6.27117862538481940504
	225	1	9.97738409709391049773	5.76044539426546009508	0.00000000000000000000
	226	1	9.97738409709391049773	5.76044539426546009508	7.05507595355792105352
	227	1	12.19458056311477811562	5.76044539426546009508	0.78389732817310242563
	228	1	12.19458056311477811562	5.76044539426546009508	3.13558931269240970252
	229	1	6.65158939806260640637	3.84029692951030687809	9.40676793807722866347
	230	1	6.65158939806260640637	3.84029692951030687809	16.46184389163514794063
	231	1	8.86878586408347580061	3.84029692951030687809	10.19066526625033120013
	232	1	8.86878586408347580061	3.84029692951030687809	12.54235725076963881008
	233	1	11.08598233010434341850	3.84029692951030687809	13.32625457894274134674
	234	1	11.08598233010434341850	3.84029692951030687809	15.67794656346204718034
	235	1	7.76018763107304110349	5.76044539426546009508	13.32625457894274134674
	236	1	7.76018763107304110349	5.76044539426546009508	15.67794656346204718034
	237	1	9.97738409709391049773	5.76044539426546009508	9.40676793807722866347
	238	1	9.97738409709391049773	5.76044539426546009508	16.46184389163514794063
	239	1	12.19458056311477811562	5.76044539426546009508	10.19066526625033120013
	240	1	12.19458056311477811562	5.76044539426546009508	12.54235725076963881008
	241	1	6.65158939806260640637	3.84029692951030687809	18.81353587615445732695
	242	1	6.65158939806260640637	3.84029692951030687809	25.86861182971237838046
	243	1	8.86878586408347580061	3.84029692951030687809	19.59743320432755808724
	244	1	8.86878586408347580061	3.84029692951030687809	21.94912518884686747356
	245	1	11.08598233010434341850	3.84029692951030687809	22.73302251701996823385
	246	1	11.08598233010434341850	3.84029692951030687809	25.08471450153927762017
	247	1	7.76018763107304110349	5.76044539426546009508	22.73302251701996823385
	248	1	7.76018763107304110349	5.76044539426546009508	25.08471450153927762017
	249	1	9.97738409709391049773	5.76044539426546009508	18.81353587615445732695
	250	1	9.97738409709391049773	5.76044539426546009508	25.86861182971237838046
	251	1	12.19458056311477811562	5.76044539426546009508	19.59743320432755808724
	252	1	12.19458056311477811562	5.76044539426546009508	21.94912518884686747356
	253	1	6.65158939806260640637	3.84029692951030687809	28.22030381423168421406
	254	1	6.65158939806260640637	3.84029692951030687809	35.27537976778960171487
	255	1	8.86878586408347580061	3.84029692951030687809	29.00420114240478497436
	256	1	8.86878586408347580061	3.84029692951030687809	31.35589312692409436067
	257	1	11.08598233010434341850	3.84029692951030687809	32.13979045509719867368
	258	1	11.08598233010434341850	3.84029692951030687809	34.49148243961650450728
	259	1	7.76018763107304110349	5.76044539426546009508	32.13979045509719867368
	260	1	7.76018763107304110349	5.76044539426546009508	34.49148243961650450728
	261	1	9.97738409709391049773	5.76044539426546009508	28.22030381423168421406
	262	1	9.97738409709391049773	5.76044539426546009508	35.27537976778960171487
	263	1	12.19458056311477811562	5.76044539426546009508	29.00420114240478497436
	264	1	12.19458056311477811562	5.76044539426546009508	31.35589312692409436067
	265	1	6.65158939806260640637	3.84029692951030687809	37.62707175230891465390
	266	1	6.65158939806260640637	3.84029692951030687809	44.68214770586683926012
	267	1	8.86878586408347580061	3.84029692951030687809	38.41096908048201896690
	268	1	8.86878586408347580061	3.84029692951030687809	40.76266106500132480051
	269	1	11.08598233010434341850	3.84029692951030687809	41.54655839317442911351
	270	1	11.08598233010434341850	3.84029692951030687809	43.89825037769373494712
	271	1	7.76018763107304110349	5.76044539426546009508	41.54655839317442911351
	272	1	7.76018763107304110349	5.76044539426546009508	43.89825037769373494712
	273	1	9.97738409709391049773	5.76044539426546009508	37.62707175230891465390
	274	1	9.97738409709391049773	5.76044539426546009508	44.68214770586683926012
	275	1	12.19458056311477811562	5.76044539426546009508	38.41096908048201896690
	276	1	12.19458056311477811562	5.76044539426546009508	40.76266106500132480051
	277	1	6.65158939806260640637	3.84029692951030687809	47.03383969038614509373
	278	1	6.65158939806260640637	3.84029692951030687809	54.08891564394406259453
	279	1	8.86878586408347580061	3.84029692951030687809	47.81773701855924940674
	280	1	8.86878586408347580061	3.84029692951030687809	50.16942900307855524034
	281	1	11.08598233010434341850	3.84029692951030687809	50.95332633125165955335
	282	1	11.08598233010434341850	3.84029692951030687809	53.30501831577096538695
	283	1	7.76018763107304110349	5.76044539426546009508	50.95332633125165955335
	284	1	7.76018763107304110349	5.76044539426546009508	53.30501831577096538695
	285	1	9.97738409709391049773	5.76044539426546009508	47.03383969038614509373
	286	1	9.97738409709391049773	5.76044539426546009508	54.08891564394406259453
	287	1	12.19458056311477811562	5.76044539426546009508	47.81773701855924940674
	288	1	12.19458056311477811562	5.76044539426546009508	50.16942900307855524034
