ITEM: TIMESTEP
0
ITEM: NUMBER OF ATOMS
288
ITEM: BOX BOUNDS pp pp ss
0 13.3032
0 7.68059
-0.00564406 54.0946
ITEM: ATOMS id type x y z fx fy fz 
1 1 0 0 0 -2.7478e-15 -2.78338e-15 -0.0726992 
3 1 2.2172 0 0.783897 0 -3.20577e-15 0.0894603 
4 1 2.2172 0 3.13559 4.23273e-16 -1.79787e-16 8.1983e-15 
9 1 3.32579 1.92015 0 -8.18789e-15 6.38378e-16 -0.0726992 
11 1 5.54299 1.92015 0.783897 1.09357e-14 1.85962e-15 0.0894603 
12 1 5.54299 1.92015 3.13559 1.21517e-14 -4.16334e-17 4.54151e-15 
145 1 6.65159 0 0 7.77156e-16 -3.90788e-15 -0.0726992 
147 1 8.86879 0 0.783897 3.747e-16 -3.02536e-15 0.0894603 
148 1 8.86879 0 3.13559 -1.97689e-14 -2.68015e-15 4.47212e-15 
153 1 9.97738 1.92015 0 -2.18575e-14 5.41234e-16 -0.0726992 
155 1 12.1946 1.92015 0.783897 2.17049e-14 7.91034e-16 0.0894603 
156 1 12.1946 1.92015 3.13559 1.82666e-15 -3.67761e-16 1.00267e-14 
73 1 0 3.8403 0 -1.66533e-15 -1.1716e-15 -0.0726992 
75 1 2.2172 3.8403 0.783897 -5.53724e-15 -7.29972e-15 0.0894603 
76 1 2.2172 3.8403 3.13559 5.1209e-15 -8.51418e-15 7.29972e-15 
81 1 3.32579 5.76045 0 -3.67761e-15 9.86711e-15 -0.0726992 
83 1 5.54299 5.76045 0.783897 1.05471e-14 3.83027e-15 0.0894603 
84 1 5.54299 5.76045 3.13559 1.52708e-14 5.7402e-15 2.54657e-15 
217 1 6.65159 3.8403 0 4.32987e-15 -1.76847e-15 -0.0726992 
219 1 8.86879 3.8403 0.783897 -4.26048e-15 -1.72085e-15 0.0894603 
220 1 8.86879 3.8403 3.13559 -1.91722e-14 -1.62023e-15 2.17881e-15 
225 1 9.97738 5.76045 0 -2.15522e-14 4.21885e-15 -0.0726992 
227 1 12.1946 5.76045 0.783897 2.14273e-14 3.15186e-15 0.0894603 
228 1 12.1946 5.76045 3.13559 1.7833e-15 4.26395e-15 1.04881e-14 
2 1 0 0 7.05508 -6.35603e-15 -6.04107e-15 3.72272e-15 
7 1 1.1086 1.92015 3.91949 -2.9074e-15 6.52256e-16 -8.38565e-15 
8 1 1.1086 1.92015 6.27118 -6.61797e-15 8.11851e-16 -5.8599e-15 
10 1 3.32579 1.92015 7.05508 1.44239e-14 -2.08167e-17 7.24074e-15 
5 1 4.43439 0 3.91949 -8.59555e-15 -1.51268e-15 -4.08007e-15 
6 1 4.43439 0 6.27118 -1.57097e-14 -1.08073e-15 1.06512e-15 
146 1 6.65159 0 7.05508 1.52829e-14 -1.18135e-15 7.28584e-15 
151 1 7.76019 1.92015 3.91949 -2.27935e-15 -1.17961e-16 -1.12167e-14 
152 1 7.76019 1.92015 6.27118 1.32533e-15 4.44089e-16 7.19216e-15 
149 1 11.086 0 3.91949 1.97672e-14 -2.53964e-15 -2.14412e-15 
150 1 11.086 0 6.27118 1.8277e-14 1.9847e-17 -4.71151e-15 
154 1 9.97738 1.92015 7.05508 -1.80561e-14 -3.40006e-16 1.29272e-14 
74 1 0 3.8403 7.05508 -1.02071e-14 -8.89271e-16 6.43582e-15 
79 1 1.1086 5.76045 3.91949 -8.53484e-15 8.05034e-15 -4.69763e-15 
80 1 1.1086 5.76045 6.27118 -8.5279e-15 6.18429e-15 -3.31679e-15 
82 1 3.32579 5.76045 7.05508 9.90007e-15 7.82534e-15 9.73527e-15 
77 1 4.43439 3.8403 3.91949 -1.16644e-14 -4.28441e-15 -7.38992e-16 
78 1 4.43439 3.8403 6.27118 -9.56527e-15 -6.6773e-15 -2.7478e-15 
218 1 6.65159 3.8403 7.05508 9.42765e-15 -6.90104e-15 1.05124e-14 
223 1 7.76019 5.76045 3.91949 -3.25087e-15 4.46518e-15 -1.2202e-14 
224 1 7.76019 5.76045 6.27118 4.82253e-15 7.62237e-15 4.50334e-15 
221 1 11.086 3.8403 3.91949 1.92412e-14 -1.337e-15 -1.249e-16 
222 1 11.086 3.8403 6.27118 2.13926e-14 -2.38106e-15 -5.8703e-15 
226 1 9.97738 5.76045 7.05508 -1.95972e-14 2.67668e-15 1.42525e-14 
13 1 0 0 9.40677 -3.01148e-15 -1.43319e-15 1.80758e-15 
15 1 2.2172 0 10.1907 1.41553e-15 -1.98973e-15 -4.16334e-17 
21 1 3.32579 1.92015 9.40677 -6.26409e-15 3.53884e-16 -2.09902e-15 
23 1 5.54299 1.92015 10.1907 6.57675e-15 2.91434e-16 2.3731e-15 
157 1 6.65159 0 9.40677 1.36696e-15 -2.99587e-15 2.1233e-15 
159 1 8.86879 0 10.1907 -7.35523e-16 -2.78944e-15 -1.60288e-15 
165 1 9.97738 1.92015 9.40677 -1.96874e-14 2.35922e-16 -7.31012e-15 
167 1 12.1946 1.92015 10.1907 2.02512e-14 -2.35922e-16 6.61624e-15 
85 1 0 3.8403 9.40677 -2.46331e-16 -1.47145e-15 4.96131e-16 
87 1 2.2172 3.8403 10.1907 -4.39388e-15 -6.75154e-15 2.668e-15 
93 1 3.32579 5.76045 9.40677 -3.85629e-15 8.36657e-15 -5.17988e-15 
95 1 5.54299 5.76045 10.1907 8.14453e-15 4.7011e-15 2.81372e-15 
229 1 6.65159 3.8403 9.40677 3.70537e-15 -1.97412e-15 -2.84495e-16 
231 1 8.86879 3.8403 10.1907 -3.01692e-15 -1.97065e-15 2.98372e-16 
237 1 9.97738 5.76045 9.40677 -1.89276e-14 4.54151e-15 -7.24767e-15 
239 1 12.1946 5.76045 10.1907 1.9075e-14 3.06699e-15 5.02723e-15 
16 1 2.2172 0 12.5424 3.1225e-16 -1.19072e-16 1.56819e-15 
19 1 1.1086 1.92015 13.3263 -3.27169e-15 -1.11022e-16 -2.57329e-14 
17 1 4.43439 0 13.3263 -9.63465e-15 -9.99201e-16 -1.89883e-14 
24 1 5.54299 1.92015 12.5424 1.25264e-14 -1.38778e-16 -3.44863e-15 
163 1 7.76019 1.92015 13.3263 -2.42141e-15 6.03684e-16 -2.70547e-14 
160 1 8.86879 0 12.5424 -2.09416e-14 -2.15106e-15 -4.42354e-15 
161 1 11.086 0 13.3263 2.12504e-14 -2.97158e-15 -1.83221e-14 
168 1 12.1946 1.92015 12.5424 3.30465e-15 -7.63278e-16 8.04912e-16 
88 1 2.2172 3.8403 12.5424 4.91274e-15 -7.67631e-15 -1.62717e-15 
91 1 1.1086 5.76045 13.3263 -7.96932e-15 7.90636e-15 -2.24022e-14 
89 1 4.43439 3.8403 13.3263 -1.26555e-14 -5.35993e-15 -1.61642e-14 
96 1 5.54299 5.76045 12.5424 1.63012e-14 6.39419e-15 -4.93008e-15 
235 1 7.76019 5.76045 13.3263 -3.20056e-15 2.85535e-15 -2.76931e-14 
232 1 8.86879 3.8403 12.5424 -2.05669e-14 -1.25594e-15 -5.84602e-15 
233 1 11.086 3.8403 13.3263 1.91546e-14 -1.25859e-15 -1.60219e-14 
240 1 12.1946 5.76045 12.5424 2.58994e-15 5.02896e-15 2.30718e-15 
14 1 0 0 16.4618 -4.22579e-15 -5.23051e-15 3.80806e-14 
20 1 1.1086 1.92015 15.6779 2.1684e-16 9.85323e-16 4.49987e-15 
22 1 3.32579 1.92015 16.4618 4.85223e-15 1.20737e-15 3.86323e-14 
18 1 4.43439 0 15.6779 -6.4046e-15 -1.58727e-15 7.08114e-15 
158 1 6.65159 0 16.4618 6.98053e-15 -1.08247e-15 3.90417e-14 
164 1 7.76019 1.92015 15.6779 4.16334e-16 7.07767e-16 1.18135e-14 
162 1 11.086 0 15.6779 1.41311e-14 -7.23061e-16 2.88311e-15 
166 1 9.97738 1.92015 16.4618 -1.47358e-14 -1.94289e-16 4.38399e-14 
86 1 0 3.8403 16.4618 -6.05072e-15 -6.28917e-16 3.95378e-14 
92 1 1.1086 5.76045 15.6779 -2.5327e-15 4.85896e-15 6.18255e-15 
94 1 3.32579 5.76045 16.4618 3.40006e-15 5.80438e-15 4.03427e-14 
90 1 4.43439 3.8403 15.6779 -3.92048e-15 -5.42101e-15 4.77396e-15 
230 1 6.65159 3.8403 16.4618 3.89039e-15 -6.29358e-15 4.17964e-14 
236 1 7.76019 5.76045 15.6779 3.56486e-15 6.63011e-15 9.20097e-15 
234 1 11.086 3.8403 15.6779 1.75242e-14 -4.61248e-15 6.69603e-16 
238 1 9.97738 5.76045 16.4618 -1.69517e-14 5.59969e-15 4.61159e-14 
25 1 0 0 18.8135 -5.50948e-15 -1.047e-15 -4.02144e-14 
27 1 2.2172 0 19.5974 2.63678e-15 -5.9449e-15 4.29067e-14 
33 1 3.32579 1.92015 18.8135 1.10155e-15 1.52656e-16 -4.41557e-14 
35 1 5.54299 1.92015 19.5974 4.96909e-15 -1.59595e-16 4.13454e-14 
169 1 6.65159 0 18.8135 -3.1572e-16 -4.78784e-16 -3.88301e-14 
171 1 8.86879 0 19.5974 4.7358e-16 -3.33067e-16 3.93435e-14 
177 1 9.97738 1.92015 18.8135 -2.08878e-14 2.22045e-16 -4.53561e-14 
179 1 12.1946 1.92015 19.5974 2.03414e-14 1.35308e-15 4.51236e-14 
97 1 0 3.8403 18.8135 -2.76862e-15 -5.9821e-15 -4.17444e-14 
99 1 2.2172 3.8403 19.5974 -3.65676e-16 4.35416e-16 4.39891e-14 
105 1 3.32579 5.76045 18.8135 -2.43208e-15 5.35683e-15 -4.14807e-14 
107 1 5.54299 5.76045 19.5974 2.80678e-15 5.45917e-15 4.19179e-14 
241 1 6.65159 3.8403 18.8135 3.55271e-15 -4.84335e-15 -4.09152e-14 
243 1 8.86879 3.8403 19.5974 -3.26171e-15 -5.70377e-15 4.10089e-14 
249 1 9.97738 5.76045 18.8135 -1.74236e-14 5.78183e-15 -4.79651e-14 
251 1 12.1946 5.76045 19.5974 1.71564e-14 5.67602e-15 4.74967e-14 
28 1 2.2172 0 21.9491 -1.58554e-15 -4.53993e-15 -4.16958e-14 
31 1 1.1086 1.92015 22.733 -5.46785e-15 -6.93889e-18 4.10366e-14 
32 1 1.1086 1.92015 25.0847 -9.17669e-16 6.38378e-16 -4.20046e-14 
29 1 4.43439 0 22.733 -2.97679e-15 4.68375e-16 4.34305e-14 
30 1 4.43439 0 25.0847 -6.57807e-15 -1.70697e-15 -3.87364e-14 
36 1 5.54299 1.92015 21.9491 8.20871e-15 -1.04083e-16 -4.29309e-14 
175 1 7.76019 1.92015 22.733 -1.10328e-15 4.71845e-16 3.69392e-14 
176 1 7.76019 1.92015 25.0847 -1.73472e-17 1.26982e-15 -3.59782e-14 
172 1 8.86879 0 21.9491 -2.09138e-14 -8.8124e-16 -4.58418e-14 
173 1 11.086 0 22.733 2.0494e-14 -9.87058e-16 4.51444e-14 
174 1 11.086 0 25.0847 1.41276e-14 -1.8541e-15 -4.34999e-14 
180 1 12.1946 1.92015 21.9491 1.1189e-15 1.80411e-16 -3.83304e-14 
100 1 2.2172 3.8403 21.9491 -8.32667e-16 1.55176e-16 -4.33403e-14 
103 1 1.1086 5.76045 22.733 -3.86496e-15 4.33416e-15 3.96801e-14 
104 1 1.1086 5.76045 25.0847 -2.51361e-15 4.50681e-15 -4.06966e-14 
101 1 4.43439 3.8403 22.733 -4.10262e-15 -3.95864e-15 4.5481e-14 
102 1 4.43439 3.8403 25.0847 -3.22659e-15 -5.92408e-15 -4.09291e-14 
108 1 5.54299 5.76045 21.9491 1.1293e-14 3.61516e-15 -4.28615e-14 
247 1 7.76019 5.76045 22.733 -4.05925e-15 5.89286e-15 3.99437e-14 
248 1 7.76019 5.76045 25.0847 4.25007e-15 5.65346e-15 -3.92741e-14 
244 1 8.86879 3.8403 21.9491 -1.78607e-14 -5.42622e-15 -4.74412e-14 
245 1 11.086 3.8403 22.733 1.74808e-14 -4.98213e-15 4.89574e-14 
246 1 11.086 3.8403 25.0847 1.69795e-14 -4.38697e-15 -4.70075e-14 
252 1 12.1946 5.76045 21.9491 3.91527e-15 5.80438e-15 -4.08215e-14 
26 1 0 0 25.8686 -3.44516e-15 -4.73785e-15 -7.29278e-15 
34 1 3.32579 1.92015 25.8686 5.70224e-15 1.36002e-15 -6.05418e-15 
37 1 0 0 28.2203 -6.02296e-15 -1.03312e-15 6.53991e-15 
45 1 3.32579 1.92015 28.2203 1.09808e-15 1.66533e-16 2.158e-15 
170 1 6.65159 0 25.8686 6.08194e-15 -9.4369e-16 -6.40807e-15 
181 1 6.65159 0 28.2203 -5.23886e-16 -4.71845e-16 9.55833e-15 
178 1 9.97738 1.92015 25.8686 -1.42917e-14 1.02696e-15 -1.83881e-15 
189 1 9.97738 1.92015 28.2203 -2.03778e-14 1.94289e-16 1.99146e-15 
98 1 0 3.8403 25.8686 -5.42275e-15 -4.2075e-16 -5.32213e-15 
106 1 3.32579 5.76045 25.8686 3.16761e-15 6.27623e-15 -4.13211e-15 
109 1 0 3.8403 28.2203 -3.08087e-15 -5.97516e-15 4.2466e-15 
117 1 3.32579 5.76045 28.2203 -2.1684e-15 5.70377e-15 3.90313e-15 
242 1 6.65159 3.8403 25.8686 3.26936e-15 -5.96745e-15 -4.37497e-15 
253 1 6.65159 3.8403 28.2203 2.99066e-15 -5.3707e-15 6.29358e-15 
250 1 9.97738 5.76045 25.8686 -1.69829e-14 5.23193e-15 -2.15106e-16 
261 1 9.97738 5.76045 28.2203 -1.80481e-14 5.23366e-15 -1.12757e-15 
39 1 2.2172 0 29.0042 2.96117e-15 -5.70204e-15 4.03635e-14 
40 1 2.2172 0 31.3559 -3.32373e-15 -6.86435e-15 -8.9824e-15 
43 1 1.1086 1.92015 32.1398 -7.38645e-15 2.15106e-16 -3.68941e-14 
41 1 4.43439 0 32.1398 -3.14852e-15 6.12357e-16 -3.32026e-14 
47 1 5.54299 1.92015 29.0042 5.71884e-15 -3.40006e-16 3.73417e-14 
48 1 5.54299 1.92015 31.3559 8.63372e-15 1.38778e-16 -9.62425e-15 
187 1 7.76019 1.92015 32.1398 1.3679e-15 -1.10328e-15 -4.39544e-14 
183 1 8.86879 0 29.0042 -6.6093e-16 -5.44703e-16 3.60059e-14 
184 1 8.86879 0 31.3559 -2.46539e-14 1.33574e-15 -1.14249e-14 
185 1 11.086 0 32.1398 2.46296e-14 1.75207e-16 -3.27932e-14 
191 1 12.1946 1.92015 29.0042 2.04871e-14 1.19349e-15 4.18346e-14 
192 1 12.1946 1.92015 31.3559 -2.74086e-16 -9.57567e-16 -2.87617e-15 
111 1 2.2172 3.8403 29.0042 -3.29421e-16 -1.56757e-16 4.10227e-14 
112 1 2.2172 3.8403 31.3559 -8.67362e-16 1.3326e-16 -1.04361e-14 
115 1 1.1086 5.76045 32.1398 -4.0315e-15 6.50791e-15 -3.94684e-14 
113 1 4.43439 3.8403 32.1398 -3.14015e-15 -4.06213e-15 -3.29181e-14 
119 1 5.54299 5.76045 29.0042 3.35842e-15 6.11663e-15 3.79141e-14 
120 1 5.54299 5.76045 31.3559 1.16018e-14 3.3272e-15 -9.15934e-15 
259 1 7.76019 5.76045 32.1398 -3.407e-15 5.9501e-15 -4.04676e-14 
255 1 8.86879 3.8403 29.0042 -3.26867e-15 -4.90372e-15 3.77164e-14 
256 1 8.86879 3.8403 31.3559 -2.25167e-14 -6.19157e-15 -1.46862e-14 
257 1 11.086 3.8403 32.1398 2.2077e-14 -5.90656e-15 -2.98234e-14 
263 1 12.1946 5.76045 29.0042 1.7885e-14 5.80288e-15 4.32362e-14 
264 1 12.1946 5.76045 31.3559 4.19803e-15 6.67001e-15 -4.83294e-15 
38 1 0 0 35.2754 -5.19029e-15 -6.65165e-16 1.12368e-13 
44 1 1.1086 1.92015 34.4915 -4.50334e-15 7.97973e-16 -2.23641e-14 
46 1 3.32579 1.92015 35.2754 5.36209e-15 -3.67761e-16 1.14762e-13 
42 1 4.43439 0 34.4915 -8.43769e-15 -3.30985e-15 -2.23294e-14 
182 1 6.65159 0 35.2754 9.01015e-15 -4.48426e-15 1.13524e-13 
188 1 7.76019 1.92015 34.4915 4.58834e-15 -6.93889e-17 -1.70731e-14 
186 1 11.086 0 34.4915 1.39194e-14 2.81791e-16 -2.47337e-14 
190 1 9.97738 1.92015 35.2754 -1.43364e-14 -3.747e-16 1.15713e-13 
110 1 0 3.8403 35.2754 -7.32747e-15 -5.36318e-15 1.13052e-13 
116 1 1.1086 5.76045 34.4915 -2.66627e-15 5.27529e-15 -2.50355e-14 
118 1 3.32579 5.76045 35.2754 7.52176e-15 4.36283e-15 1.13534e-13 
114 1 4.43439 3.8403 34.4915 -4.93355e-15 -6.9042e-16 -2.22843e-14 
254 1 6.65159 3.8403 35.2754 5.76333e-15 1.30387e-16 1.15956e-13 
260 1 7.76019 5.76045 34.4915 1.59248e-15 4.37844e-15 -1.65319e-14 
258 1 11.086 3.8403 34.4915 1.66256e-14 -4.05446e-15 -2.58647e-14 
262 1 9.97738 5.76045 35.2754 -1.67193e-14 4.20844e-15 1.19033e-13 
49 1 0 0 37.6271 -7.14706e-15 -6.17651e-17 -5.4217e-14 
51 1 2.2172 0 38.411 3.40353e-15 -7.61891e-15 -3.9295e-14 
57 1 3.32579 1.92015 37.6271 -3.46771e-15 5.27356e-16 -6.06563e-14 
59 1 5.54299 1.92015 38.411 1.09711e-14 -1.02696e-15 -3.97876e-14 
193 1 6.65159 0 37.6271 -5.0307e-16 8.67362e-18 -5.14935e-14 
195 1 8.86879 0 38.411 7.89299e-16 -1.66533e-16 -4.30385e-14 
201 1 9.97738 1.92015 37.6271 -2.5948e-14 -9.15934e-16 -6.08333e-14 
203 1 12.1946 1.92015 38.411 2.61249e-14 6.93889e-17 -3.50865e-14 
121 1 0 3.8403 37.6271 -5.59622e-15 -5.49653e-15 -5.59865e-14 
123 1 2.2172 3.8403 38.411 1.21717e-15 -4.33681e-17 -3.4403e-14 
129 1 3.32579 5.76045 37.6271 -8.10116e-15 7.16788e-15 -5.69579e-14 
131 1 5.54299 5.76045 38.411 7.65707e-15 6.5694e-15 -3.65888e-14 
265 1 6.65159 3.8403 37.6271 3.92394e-15 -5.62571e-15 -5.59691e-14 
267 1 8.86879 3.8403 38.411 -3.67245e-15 -5.4956e-15 -4.05995e-14 
273 1 9.97738 5.76045 37.6271 -2.1861e-14 6.57113e-15 -6.40633e-14 
275 1 12.1946 5.76045 38.411 2.21663e-14 5.50254e-15 -3.21652e-14 
52 1 2.2172 0 40.7627 -3.4972e-15 -7.25987e-15 4.08042e-14 
55 1 1.1086 1.92015 41.5466 -7.08808e-15 8.67362e-16 -4.01901e-14 
53 1 4.43439 0 41.5466 -1.97238e-15 1.16573e-15 -3.71647e-14 
60 1 5.54299 1.92015 40.7627 8.18789e-15 1.249e-16 4.11546e-14 
199 1 7.76019 1.92015 41.5466 4.23273e-16 -1.04083e-15 -4.81039e-14 
196 1 8.86879 0 40.7627 -2.47649e-14 5.75928e-16 3.75915e-14 
197 1 11.086 0 41.5466 2.53599e-14 6.245e-16 -3.6849e-14 
204 1 12.1946 1.92015 40.7627 -1.54217e-15 -9.64506e-16 4.63796e-14 
124 1 2.2172 3.8403 40.7627 -1.19696e-15 -3.47259e-16 3.63078e-14 
127 1 1.1086 5.76045 41.5466 -4.64559e-15 6.76812e-15 -4.30142e-14 
125 1 4.43439 3.8403 41.5466 -1.94785e-15 -4.2093e-15 -3.63078e-14 
132 1 5.54299 5.76045 40.7627 1.13971e-14 2.95423e-15 3.91319e-14 
271 1 7.76019 5.76045 41.5466 -3.832e-15 6.55032e-15 -4.43048e-14 
268 1 8.86879 3.8403 40.7627 -2.25167e-14 -6.11317e-15 3.44273e-14 
269 1 11.086 3.8403 41.5466 2.31257e-14 -6.16033e-15 -3.40179e-14 
276 1 12.1946 5.76045 40.7627 4.13385e-15 6.47746e-15 4.32397e-14 
50 1 0 0 44.6821 -4.2813e-15 -6.52687e-15 -4.39683e-14 
56 1 1.1086 1.92015 43.8983 -4.09742e-15 1.249e-16 3.69947e-14 
58 1 3.32579 1.92015 44.6821 1.22701e-14 6.93889e-17 -4.28269e-14 
54 1 4.43439 0 43.8983 -1.24276e-14 -1.99493e-16 4.10366e-14 
194 1 6.65159 0 44.6821 1.23408e-14 -5.20417e-16 -4.24036e-14 
200 1 7.76019 1.92015 43.8983 -6.69603e-16 3.46945e-16 4.83606e-14 
198 1 11.086 0 43.8983 1.54737e-14 -1.38868e-15 3.69704e-14 
202 1 9.97738 1.92015 44.6821 -1.47848e-14 3.19189e-16 -3.63841e-14 
122 1 0 3.8403 44.6821 -7.86871e-15 -4.04068e-16 -4.17062e-14 
128 1 1.1086 5.76045 43.8983 -7.78544e-15 6.78971e-15 3.87954e-14 
130 1 3.32579 5.76045 44.6821 8.04565e-15 6.56766e-15 -3.92394e-14 
126 1 4.43439 3.8403 43.8983 -8.20177e-15 -6.42195e-15 3.866e-14 
266 1 6.65159 3.8403 44.6821 8.29233e-15 -6.41154e-15 -3.92048e-14 
272 1 7.76019 5.76045 43.8983 4.81733e-15 6.60236e-15 4.51895e-14 
270 1 11.086 3.8403 43.8983 1.95954e-14 -6.97527e-15 3.47396e-14 
274 1 9.97738 5.76045 44.6821 -2.04194e-14 8.08208e-15 -3.53606e-14 
61 1 0 0 47.0338 -7.91728e-15 -2.71667e-16 4.31842e-14 
63 1 2.2172 0 47.8177 3.63598e-15 -8.08381e-15 -4.04017e-14 
64 1 2.2172 0 50.1694 -3.4972e-15 -7.25987e-15 4.03462e-14 
69 1 3.32579 1.92015 47.0338 -2.96117e-15 5.34295e-16 3.71127e-14 
71 1 5.54299 1.92015 47.8177 1.12826e-14 -9.15934e-16 -4.1727e-14 
72 1 5.54299 1.92015 50.1694 8.18789e-15 1.249e-16 4.10574e-14 
205 1 6.65159 0 47.0338 -1.38778e-16 -2.77556e-17 4.62616e-14 
207 1 8.86879 0 47.8177 4.57967e-16 3.46945e-17 -4.56822e-14 
208 1 8.86879 0 50.1694 -2.47649e-14 5.75928e-16 3.75915e-14 
213 1 9.97738 1.92015 47.0338 -2.53807e-14 -9.15934e-16 3.6051e-14 
215 1 12.1946 1.92015 47.8177 2.52645e-14 -1.17961e-16 -3.74319e-14 
216 1 12.1946 1.92015 50.1694 -1.54217e-15 -9.64506e-16 4.63796e-14 
133 1 0 3.8403 47.0338 -4.23273e-15 -5.33867e-15 4.16958e-14 
135 1 2.2172 3.8403 47.8177 -3.64292e-16 5.11743e-16 -3.67449e-14 
136 1 2.2172 3.8403 50.1694 -1.19696e-15 -3.47259e-16 3.62106e-14 
141 1 3.32579 5.76045 47.0338 -7.4489e-15 7.03951e-15 3.98744e-14 
143 1 5.54299 5.76045 47.8177 7.0291e-15 6.97879e-15 -3.88682e-14 
144 1 5.54299 5.76045 50.1694 1.13971e-14 2.95423e-15 3.91319e-14 
277 1 6.65159 3.8403 47.0338 4.59355e-15 -6.07847e-15 4.23307e-14 
279 1 8.86879 3.8403 47.8177 -3.90139e-15 -5.50254e-15 -4.33542e-14 
280 1 8.86879 3.8403 50.1694 -2.25167e-14 -6.11317e-15 3.44273e-14 
285 1 9.97738 5.76045 47.0338 -2.17378e-14 6.36817e-15 3.40734e-14 
287 1 12.1946 5.76045 47.8177 2.18887e-14 5.71765e-15 -3.44585e-14 
288 1 12.1946 5.76045 50.1694 4.13385e-15 6.47746e-15 4.32397e-14 
62 1 0 0 54.0889 -6.30052e-15 -4.65553e-16 0.0726992 
67 1 1.1086 1.92015 50.9533 -7.05686e-15 8.67362e-16 -3.77198e-14 
68 1 1.1086 1.92015 53.305 -4.76008e-15 7.63278e-16 -0.0894603 
70 1 3.32579 1.92015 54.0889 5.55112e-15 -3.60822e-16 0.0726992 
65 1 4.43439 0 50.9533 -2.00014e-15 1.15359e-15 -3.46112e-14 
66 1 4.43439 0 53.305 -9.27036e-15 -4.47735e-15 -0.0894603 
206 1 6.65159 0 54.0889 9.74221e-15 -5.42622e-15 0.0726992 
211 1 7.76019 1.92015 50.9533 4.65843e-16 -1.04083e-15 -4.4912e-14 
212 1 7.76019 1.92015 53.305 4.91274e-15 2.77556e-16 -0.0894603 
209 1 11.086 0 50.9533 2.54068e-14 6.19296e-16 -3.41983e-14 
210 1 11.086 0 53.305 1.67089e-14 -5.89159e-16 -0.0894603 
214 1 9.97738 1.92015 54.0889 -1.75832e-14 -4.02456e-16 0.0726992 
134 1 0 3.8403 54.0889 -8.43769e-15 -6.56125e-15 0.0726992 
139 1 1.1086 5.76045 50.9533 -4.64212e-15 6.74384e-15 -4.06827e-14 
140 1 1.1086 5.76045 53.305 -1.80411e-15 6.31439e-15 -0.0894603 
142 1 3.32579 5.76045 54.0889 7.81319e-15 5.80092e-15 0.0726992 
137 1 4.43439 3.8403 50.9533 -1.95013e-15 -4.22866e-15 -3.43232e-14 
138 1 4.43439 3.8403 53.305 -4.80171e-15 -9.55473e-16 -0.0894603 
278 1 6.65159 3.8403 54.0889 5.71765e-15 -1.08247e-15 0.0726992 
283 1 7.76019 5.76045 50.9533 -3.80598e-15 6.58154e-15 -4.16819e-14 
284 1 7.76019 5.76045 53.305 2.60902e-15 6.14786e-15 -0.0894603 
281 1 11.086 3.8403 50.9533 2.31456e-14 -6.1633e-15 -3.12701e-14 
282 1 11.086 3.8403 53.305 1.94844e-14 -3.73607e-15 -0.0894603 
286 1 9.97738 5.76045 54.0889 -1.97897e-14 4.84335e-15 0.0726992 
ITEM: TIMESTEP
116
ITEM: NUMBER OF ATOMS
288
ITEM: BOX BOUNDS pp pp ss
0 13.3032
0 7.68059
-0.00564406 54.0946
ITEM: ATOMS id type x y z fx fy fz 
1 1 -4.23207e-11 -6.35914e-12 0.0197889 1.73606e-09 -5.83811e-11 3.10874e-10 
3 1 2.2172 -2.54625e-11 0.813992 -1.30824e-09 7.03421e-10 1.61043e-10 
4 1 2.2172 8.88204e-12 3.1646 6.2508e-10 -1.80971e-10 1.85885e-09 
9 1 3.32579 1.92015 0.0197889 1.44927e-09 -1.14693e-10 1.0476e-09 
11 1 5.54299 1.92015 0.813992 -2.02753e-09 2.55849e-10 -4.39572e-10 
12 1 5.54299 1.92015 3.1646 2.5529e-10 1.77534e-11 2.06638e-09 
145 1 6.65159 2.87582e-12 0.0197889 1.99901e-09 -1.91501e-10 6.33547e-10 
147 1 8.86879 -2.4617e-11 0.813992 -1.56865e-09 6.29427e-10 1.39434e-11 
148 1 8.86879 -3.09616e-12 3.1646 3.41014e-10 4.65654e-12 1.43686e-09 
153 1 9.97738 1.92015 0.0197889 1.52678e-09 -5.70301e-10 1.04932e-09 
155 1 12.1946 1.92015 0.813992 -1.98718e-09 7.09286e-10 -2.74538e-10 
156 1 12.1946 1.92015 3.1646 1.45225e-10 5.10474e-10 1.90419e-09 
73 1 -4.90714e-11 3.8403 0.0197889 1.88111e-09 -4.90566e-10 8.66959e-10 
75 1 2.2172 3.8403 0.813992 -1.74328e-09 -1.30061e-10 -3.41566e-10 
76 1 2.2172 3.8403 3.1646 7.37778e-10 2.96098e-11 1.65594e-09 
81 1 3.32579 5.76045 0.0197889 1.35822e-09 -4.34871e-10 5.44922e-10 
83 1 5.54299 5.76045 0.813992 -1.62395e-09 3.17465e-10 3.16149e-10 
84 1 5.54299 5.76045 3.1646 1.55124e-10 -1.69152e-10 2.13805e-09 
217 1 6.65159 3.8403 0.0197889 1.61773e-09 -3.57968e-10 5.44219e-10 
219 1 8.86879 3.8403 0.813992 -1.47996e-09 -5.66921e-11 -2.05261e-10 
220 1 8.86879 3.8403 3.1646 1.0227e-09 -1.55899e-10 2.08012e-09 
225 1 9.97738 5.76045 0.0197889 1.28228e-09 2.13847e-11 5.49046e-10 
227 1 12.1946 5.76045 0.813992 -1.66866e-09 -1.36564e-10 1.43752e-10 
228 1 12.1946 5.76045 3.1646 2.59421e-10 -6.61805e-10 2.30205e-09 
2 1 3.81414e-12 -4.73128e-12 7.07811 -1.19055e-10 8.73626e-11 2.15834e-09 
7 1 1.1086 1.92015 3.94624 -2.5625e-10 -2.30562e-10 4.77111e-10 
8 1 1.1086 1.92015 6.29649 -1.27606e-10 -7.6011e-10 2.04806e-09 
10 1 3.32579 1.92015 7.07811 -5.66458e-11 2.06817e-10 2.05324e-09 
5 1 4.43439 2.32547e-11 3.94624 -5.48308e-10 -4.42289e-10 2.72813e-10 
6 1 4.43439 -3.25205e-12 6.29649 5.0259e-10 1.78771e-11 1.67054e-09 
146 1 6.65159 -2.83831e-11 7.07811 -5.8673e-11 5.85097e-10 2.1253e-09 
151 1 7.76019 1.92015 3.94624 -9.5586e-11 -1.05721e-10 8.31404e-10 
152 1 7.76019 1.92015 6.29649 -2.67208e-10 -3.02981e-10 1.84969e-09 
149 1 11.086 1.01113e-11 3.94624 -4.74919e-10 -1.57036e-10 3.70162e-10 
150 1 11.086 1.09791e-11 6.29649 7.69826e-10 -2.18558e-10 2.08378e-09 
154 1 9.97738 1.92015 7.07811 -3.4255e-10 1.11567e-10 1.51723e-09 
74 1 6.90138e-12 3.8403 7.07811 -2.0621e-10 -5.66454e-11 2.20934e-09 
79 1 1.1086 5.76045 3.94624 -4.84713e-10 3.63622e-10 2.88903e-10 
80 1 1.1086 5.76045 6.29649 -1.83368e-10 7.25157e-10 1.8532e-09 
82 1 3.32579 5.76045 7.07811 1.47691e-11 -1.7607e-10 1.94004e-09 
77 1 4.43439 3.8403 3.94624 -2.64983e-10 5.75399e-10 6.17447e-10 
78 1 4.43439 3.8403 6.29649 2.17932e-10 -5.28546e-11 1.48778e-09 
218 1 6.65159 3.8403 7.07811 -2.55698e-10 -5.54458e-10 2.24373e-09 
223 1 7.76019 5.76045 3.94624 -6.53437e-10 2.38686e-10 -5.70536e-11 
224 1 7.76019 5.76045 6.29649 -5.00315e-11 2.68111e-10 2.04712e-09 
221 1 11.086 3.8403 3.94624 -3.35855e-10 2.90088e-10 5.35789e-10 
222 1 11.086 3.8403 6.29649 -4.25126e-11 1.83587e-10 1.06662e-09 
226 1 9.97738 5.76045 7.07811 3.03798e-10 -8.08279e-11 2.45494e-09 
13 1 5.39847e-12 -1.05533e-11 9.42836 -1.05292e-10 1.97043e-10 -8.64286e-10 
15 1 2.2172 -4.77235e-12 10.21 -1.56397e-10 1.18373e-10 -1.19631e-09 
21 1 3.32579 1.92015 9.42836 -2.35265e-10 7.11652e-10 7.38278e-11 
23 1 5.54299 1.92015 10.21 7.36306e-11 1.11407e-10 -1.86243e-09 
157 1 6.65159 1.74333e-12 9.42836 9.35101e-11 -1.31419e-11 -5.06309e-10 
159 1 8.86879 2.94795e-11 10.21 -1.32486e-10 -5.80679e-10 -1.05076e-09 
165 1 9.97738 1.92015 9.42836 -1.15311e-10 3.77651e-10 2.92936e-10 
167 1 12.1946 1.92015 10.21 4.81717e-10 6.11207e-11 -1.19865e-09 
85 1 -3.14828e-11 3.8403 9.42836 6.36126e-10 -2.05238e-10 3.47041e-10 
87 1 2.2172 3.8403 10.21 -1.95191e-10 -1.11132e-10 -1.60356e-09 
93 1 3.32579 5.76045 9.42836 -2.05211e-10 -7.19884e-10 1.53746e-10 
95 1 5.54299 5.76045 10.21 1.95282e-10 -1.04272e-10 -1.49821e-09 
229 1 6.65159 3.8403 9.42836 4.49056e-10 5.02139e-12 -1.19035e-11 
231 1 8.86879 3.8403 10.21 -2.29144e-10 5.87891e-10 -1.72981e-09 
237 1 9.97738 5.76045 9.42836 -3.28215e-10 -3.85859e-10 -5.08416e-11 
239 1 12.1946 5.76045 10.21 -2.03598e-10 -5.39119e-11 -2.15009e-09 
16 1 2.2172 7.61948e-12 12.5602 4.59047e-10 -1.37563e-10 3.0622e-09 
19 1 1.1086 1.92015 13.3419 -1.42102e-10 -2.90177e-10 -1.61814e-09 
17 1 4.43439 1.15839e-11 13.3419 -3.48686e-10 -2.56041e-10 -1.13014e-09 
24 1 5.54299 1.92015 12.5602 -2.0483e-10 -4.91126e-10 2.86807e-09 
163 1 7.76019 1.92015 13.3419 3.511e-10 -4.5067e-10 -8.79255e-10 
160 1 8.86879 -1.02732e-12 12.5602 3.67369e-10 1.44008e-11 2.80352e-09 
161 1 11.086 -3.00953e-11 13.3419 -4.42827e-10 5.85999e-10 -1.3783e-09 
168 1 12.1946 1.92015 12.5602 -2.85986e-10 -3.35472e-10 2.6853e-09 
88 1 2.2172 3.8403 12.5602 -8.15867e-12 1.35363e-10 1.94333e-09 
91 1 1.1086 5.76045 13.3419 5.51979e-10 2.92183e-10 -6.15517e-10 
89 1 4.43439 3.8403 13.3419 -8.68225e-11 2.57983e-10 -4.07498e-10 
96 1 5.54299 5.76045 12.5602 -2.28103e-10 4.88963e-10 2.83391e-09 
235 1 7.76019 5.76045 13.3419 7.28452e-11 4.52639e-10 -1.36503e-09 
232 1 8.86879 3.8403 12.5602 7.96862e-11 -1.65669e-11 2.18607e-09 
233 1 11.086 3.8403 13.3419 4.44753e-12 -5.84127e-10 -1.79491e-10 
240 1 12.1946 5.76045 12.5602 -1.33843e-10 3.33366e-10 3.00683e-09 
14 1 -7.56667e-12 3.17184e-11 16.4737 1.39556e-10 -6.16212e-10 5.49149e-10 
20 1 1.1086 1.92015 15.6921 -1.36294e-10 1.77474e-10 -3.99357e-10 
22 1 3.32579 1.92015 16.4737 6.10251e-10 4.85683e-10 -3.4639e-11 
18 1 4.43439 -4.12302e-12 15.6921 1.70577e-10 6.61242e-11 -1.15564e-09 
158 1 6.65159 -1.44734e-11 16.4737 -2.41822e-11 3.11297e-10 2.27483e-10 
164 1 7.76019 1.92015 15.6921 -1.66882e-10 9.19203e-11 -5.07215e-10 
162 1 11.086 -8.01348e-13 15.6921 1.16095e-10 4.20188e-12 -1.05629e-09 
166 1 9.97738 1.92015 16.4737 7.25402e-11 7.57143e-10 -7.95611e-10 
86 1 3.2746e-11 3.8403 16.4737 -6.36343e-10 6.16842e-10 -9.56369e-10 
92 1 1.1086 5.76045 15.6921 -2.27713e-10 -1.78185e-10 -6.04311e-10 
94 1 3.32579 5.76045 16.4737 -1.09099e-10 -4.8517e-10 -1.11895e-09 
90 1 4.43439 3.8403 15.6921 1.98576e-10 -6.66946e-11 -4.5567e-10 
230 1 6.65159 3.8403 16.4737 -4.86435e-10 -3.10782e-10 -6.34399e-10 
236 1 7.76019 5.76045 15.6921 -1.86692e-10 -9.2504e-11 -4.86674e-10 
234 1 11.086 3.8403 15.6921 2.43075e-10 -4.65612e-12 -5.35841e-10 
238 1 9.97738 5.76045 16.4737 4.24192e-10 -7.56756e-10 -3.36935e-10 
25 1 -5.29884e-12 5.39697e-12 18.824 1.22654e-10 -8.59972e-11 -7.71812e-10 
27 1 2.2172 -3.3907e-11 19.6056 -7.47593e-10 6.66714e-10 2.8268e-09 
33 1 3.32579 1.92015 18.824 -1.79511e-10 1.0189e-11 -7.04073e-10 
35 1 5.54299 1.92015 19.6056 -1.18249e-10 -5.58438e-10 2.66023e-09 
169 1 6.65159 2.83474e-12 18.824 -9.93935e-11 -4.66225e-11 -8.89693e-10 
171 1 8.86879 1.29955e-11 19.6056 -5.35137e-10 -2.7293e-10 3.19733e-09 
177 1 9.97738 1.92015 18.824 -2.00485e-10 3.83042e-10 -6.88585e-10 
179 1 12.1946 1.92015 19.6056 4.19678e-10 -9.17866e-10 3.39519e-09 
97 1 -7.99628e-12 3.8403 18.824 1.65577e-10 8.57422e-11 -1.03249e-09 
99 1 2.2172 3.8403 19.6056 2.23575e-10 -6.66576e-10 4.32839e-09 
105 1 3.32579 5.76045 18.824 -1.00531e-10 -1.03258e-11 -6.08979e-10 
107 1 5.54299 5.76045 19.6056 6.38911e-10 5.58564e-10 3.79181e-09 
241 1 6.65159 3.8403 18.824 3.74121e-10 4.64727e-11 -9.13915e-10 
243 1 8.86879 3.8403 19.6056 2.08252e-11 2.72984e-10 3.94108e-09 
249 1 9.97738 5.76045 18.824 -7.61571e-11 -3.83097e-10 -6.46906e-10 
251 1 12.1946 5.76045 19.6056 9.18878e-11 9.18089e-10 3.04894e-09 
28 1 2.2172 -1.23335e-11 21.9558 1.64712e-10 2.22065e-10 3.7439e-11 
31 1 1.1086 1.92015 22.7375 1.1812e-10 8.82922e-10 -3.57112e-10 
32 1 1.1086 1.92015 25.0877 -2.83229e-10 1.10134e-09 2.24216e-09 
29 1 4.43439 3.45933e-11 22.7375 2.45583e-10 -6.8931e-10 6.51326e-10 
30 1 4.43439 1.92625e-11 25.0877 5.06394e-11 -3.61379e-10 2.24504e-09 
36 1 5.54299 1.92015 21.9558 -4.24043e-11 -1.28847e-10 2.37226e-10 
175 1 7.76019 1.92015 22.7375 6.21009e-10 4.66613e-10 2.98386e-10 
176 1 7.76019 1.92015 25.0877 -1.60301e-10 1.02857e-10 2.3887e-09 
172 1 8.86879 -4.11787e-12 21.9558 5.62512e-10 8.42766e-11 4.08698e-10 
173 1 11.086 -9.37842e-12 22.7375 6.92474e-12 1.91618e-10 2.57341e-10 
174 1 11.086 6.41626e-12 25.0877 -5.21714e-10 -1.42568e-10 1.61599e-09 
180 1 12.1946 1.92015 21.9558 3.0788e-11 -8.1537e-10 3.08929e-10 
100 1 2.2172 3.8403 21.9558 4.14376e-11 -2.22166e-10 1.24834e-11 
103 1 1.1086 5.76045 22.7375 3.64357e-10 -8.82846e-10 -1.18275e-10 
104 1 1.1086 5.76045 25.0877 1.30607e-10 -1.1011e-09 2.67116e-09 
101 1 4.43439 3.8403 22.7375 -7.25854e-10 6.89453e-10 -5.46055e-10 
102 1 4.43439 3.8403 25.0877 1.01242e-10 3.61625e-10 2.42699e-09 
108 1 5.54299 5.76045 21.9558 -1.5716e-10 1.28704e-10 1.69406e-10 
247 1 7.76019 5.76045 22.7375 -1.49749e-10 -4.66534e-10 -7.63789e-10 
248 1 7.76019 5.76045 25.0877 8.3265e-13 -1.02757e-10 2.51381e-09 
244 1 8.86879 3.8403 21.9558 -3.5323e-10 -8.4368e-11 -3.39628e-10 
245 1 11.086 3.8403 22.7375 -4.84042e-10 -1.91516e-10 -1.41132e-10 
246 1 11.086 3.8403 25.0877 6.81923e-10 1.42795e-10 3.0394e-09 
252 1 12.1946 5.76045 21.9558 -2.42785e-10 8.15264e-10 1.08904e-10 
26 1 1.58381e-11 6.19876e-12 25.8693 -3.3559e-10 -1.244e-10 1.14828e-10 
34 1 3.32579 1.92015 25.8693 2.73582e-10 -6.66959e-10 -7.9556e-12 
37 1 -3.42899e-11 -7.57265e-12 28.2196 7.18889e-10 1.72263e-10 8.86915e-10 
45 1 3.32579 1.92015 28.2196 1.77204e-10 -1.19807e-09 3.67951e-10 
170 1 6.65159 -3.15129e-11 25.8693 -5.78949e-10 6.33048e-10 -2.63193e-10 
181 1 6.65159 -2.34392e-11 28.2196 -1.53655e-11 4.43846e-10 1.46598e-11 
178 1 9.97738 1.92015 25.8693 -1.63141e-10 -2.37531e-10 -5.29829e-10 
189 1 9.97738 1.92015 28.2196 1.83675e-11 8.02339e-11 1.57152e-10 
98 1 3.68666e-12 3.8403 25.8693 -5.28109e-11 1.24148e-10 7.1359e-11 
106 1 3.32579 5.76045 25.8693 1.0964e-10 6.66698e-10 -1.9703e-10 
109 1 3.02366e-11 3.8403 28.2196 -5.86103e-10 -1.72123e-10 -9.60694e-10 
117 1 3.32579 5.76045 28.2196 -3.11967e-10 1.1982e-09 -2.77017e-10 
242 1 6.65159 3.8403 25.8693 1.99866e-10 -6.33163e-10 4.44676e-10 
253 1 6.65159 3.8403 28.2196 1.55798e-10 -4.4364e-10 -8.60519e-11 
250 1 9.97738 5.76045 25.8693 5.47548e-10 2.37295e-10 3.1416e-10 
261 1 9.97738 5.76045 28.2196 -1.57384e-10 -8.01191e-11 -4.93171e-11 
39 1 2.2172 -4.80596e-12 29.0012 -1.16104e-10 1.00239e-10 -2.55823e-09 
40 1 2.2172 6.60721e-12 31.3515 -5.55254e-10 -1.51352e-10 -9.2812e-10 
43 1 1.1086 1.92015 32.1331 -1.32377e-10 2.5476e-10 -1.79436e-10 
41 1 4.43439 4.4925e-12 32.1331 7.28511e-11 -1.0194e-10 1.22807e-10 
47 1 5.54299 1.92015 29.0012 6.24437e-11 3.52727e-10 -2.52293e-09 
48 1 5.54299 1.92015 31.3515 -3.17795e-10 1.13899e-09 -2.5055e-10 
187 1 7.76019 1.92015 32.1331 8.69484e-11 -5.52474e-11 -1.36216e-11 
183 1 8.86879 2.40587e-11 29.0012 1.0957e-10 -4.8327e-10 -2.24505e-09 