thermo_style    custom step atoms pe ke etotal press vol lx ly lz
thermo_modify   line one format float %.16g
min_style       cg
min_modify      line quadratic
minimize        1e-16 1e-16 50000 50000
WARNING: Resetting reneighboring criteria during minimization (../min.cpp:168)
Neighbor list info ...
  2 neighbor list requests
  update every 1 steps, delay 0 steps, check yes
  master list distance cutoff = 6.8
Memory usage per processor = 9.86222 Mbytes
Step Atoms PotEng KinEng TotEng Press Volume Lx Ly Lz 
       0      288 -1317.413572477914 0 -1317.413572477914 -552.7109576395389 5527.759373157706 13.30317879612521 7.680593859020614 54.10020376546976 
     116      288 -1317.42360451221 0 -1317.42360451221 157.0474017267204 5527.759373157706 13.30317879612521 7.680593859020614 54.10020376546976 
Loop time of 0.51774 on 1 procs for 116 steps with 288 atoms

Minimization stats:
  Stopping criterion = energy tolerance
  Energy initial, next-to-last, final = 
        -1317.41357248     -1317.42360451     -1317.42360451
  Force two-norm initial, final = 0.4611 2.95993e-08
  Force max component initial, final = 0.0894603 4.37058e-09
  Final line search alpha, max atom move = 1 4.37058e-09
  Iterations, force evaluations = 116 232

Pair  time (%) = 0.512882 (99.0618)
Neigh time (%) = 0 (0)
Comm  time (%) = 0.00191236 (0.369366)
Outpt time (%) = 0 (0)
Other time (%) = 0.00294518 (0.568854)

Nlocal:    288 ave 288 max 288 min
Histogram: 1 0 0 0 0 0 0 0 0 0
Nghost:    1356 ave 1356 max 1356 min
Histogram: 1 0 0 0 0 0 0 0 0 0
Neighs:    9640 ave 9640 max 9640 min
Histogram: 1 0 0 0 0 0 0 0 0 0
FullNghs:  19280 ave 19280 max 19280 min
Histogram: 1 0 0 0 0 0 0 0 0 0

Total # of neighbors = 19280
Ave neighs/atom = 66.9444
Neighbor list builds = 0
Dangerous builds = 0
