ITEM: TIMESTEP
0
ITEM: NUMBER OF ATOMS
72
ITEM: BOX BOUNDS pp pp ss
0 6.6468
0 3.83753
-0.00564 54.0556
ITEM: ATOMS id type x y z 
1 1 0 0 0 
3 1 2.2156 0 0.783333 
4 1 2.2156 0 3.13333 
9 1 3.3234 1.91877 0 
11 1 5.539 1.91877 0.783333 
12 1 5.539 1.91877 3.13333 
2 1 0 0 7.05 
5 1 4.4312 0 3.91667 
6 1 4.4312 0 6.26667 
7 1 1.1078 1.91877 3.91667 
8 1 1.1078 1.91877 6.26667 
10 1 3.3234 1.91877 7.05 
13 1 0 0 9.4 
15 1 2.2156 0 10.1833 
21 1 3.3234 1.91877 9.4 
23 1 5.539 1.91877 10.1833 
16 1 2.2156 0 12.5333 
17 1 4.4312 0 13.3167 
19 1 1.1078 1.91877 13.3167 
24 1 5.539 1.91877 12.5333 
14 1 0 0 16.45 
18 1 4.4312 0 15.6667 
20 1 1.1078 1.91877 15.6667 
22 1 3.3234 1.91877 16.45 
25 1 0 0 18.8 
27 1 2.2156 0 19.5833 
33 1 3.3234 1.91877 18.8 
35 1 5.539 1.91877 19.5833 
28 1 2.2156 0 21.9333 
29 1 4.4312 0 22.7167 
30 1 4.4312 0 25.0667 
31 1 1.1078 1.91877 22.7167 
32 1 1.1078 1.91877 25.0667 
36 1 5.539 1.91877 21.9333 
26 1 0 0 25.85 
34 1 3.3234 1.91877 25.85 
37 1 3.41246e-07 0 28.2 
45 1 3.3234 1.91877 28.2 
39 1 2.2156 0 28.9833 
40 1 2.2156 0 31.3333 
41 1 4.4312 0 32.1167 
43 1 1.1078 1.91877 32.1167 
47 1 5.539 1.91877 28.9833 
48 1 5.539 1.91877 31.3333 
38 1 3.41246e-07 0 35.25 
42 1 4.4312 0 34.4667 
44 1 1.1078 1.91877 34.4667 
46 1 3.3234 1.91877 35.25 
49 1 3.41246e-07 0 37.6 
51 1 2.2156 0 38.3833 
57 1 3.3234 1.91877 37.6 
59 1 5.539 1.91877 38.3833 
52 1 2.2156 0 40.7333 
53 1 4.4312 0 41.5167 
55 1 1.1078 1.91877 41.5167 
60 1 5.539 1.91877 40.7333 
50 1 3.41246e-07 0 44.65 
54 1 4.4312 0 43.8667 
56 1 1.1078 1.91877 43.8667 
58 1 3.3234 1.91877 44.65 
61 1 3.41246e-07 0 47 
63 1 2.2156 0 47.7833 
64 1 2.2156 0 50.1333 
69 1 3.3234 1.91877 47 
71 1 5.539 1.91877 47.7833 
72 1 5.539 1.91877 50.1333 
62 1 3.41246e-07 0 54.05 
65 1 4.4312 0 50.9167 
66 1 4.4312 0 53.2667 
67 1 1.1078 1.91877 50.9167 
68 1 1.1078 1.91877 53.2667 
70 1 3.3234 1.91877 54.05 
ITEM: TIMESTEP
1
ITEM: NUMBER OF ATOMS
72
ITEM: BOX BOUNDS pp pp ss
0 6.6468
0 3.83753
-0.00564 54.0556
ITEM: ATOMS id type x y z 
1 1 0 0 0 
3 1 2.2156 0 0.783333 
4 1 2.2156 0 3.13333 
9 1 3.3234 1.91877 0 
11 1 5.539 1.91877 0.783333 
12 1 5.539 1.91877 3.13333 
2 1 0 0 7.05 
5 1 4.4312 0 3.91667 
6 1 4.4312 0 6.26667 
7 1 1.1078 1.91877 3.91667 
8 1 1.1078 1.91877 6.26667 
10 1 3.3234 1.91877 7.05 
13 1 0 0 9.4 
15 1 2.2156 0 10.1833 
21 1 3.3234 1.91877 9.4 
23 1 5.539 1.91877 10.1833 
16 1 2.2156 0 12.5333 
17 1 4.4312 0 13.3167 
19 1 1.1078 1.91877 13.3167 
24 1 5.539 1.91877 12.5333 
14 1 0 0 16.45 
18 1 4.4312 0 15.6667 
20 1 1.1078 1.91877 15.6667 
22 1 3.3234 1.91877 16.45 
25 1 0 0 18.8 
27 1 2.2156 0 19.5833 
33 1 3.3234 1.91877 18.8 
35 1 5.539 1.91877 19.5833 
28 1 2.2156 0 21.9333 
29 1 4.4312 0 22.7167 
30 1 4.4312 0 25.0667 
31 1 1.1078 1.91877 22.7167 
32 1 1.1078 1.91877 25.0667 
36 1 5.539 1.91877 21.9333 
26 1 0 0 25.85 
34 1 3.3234 1.91877 25.85 
37 1 3.41246e-07 0 28.2 
45 1 3.3234 1.91877 28.2 
39 1 2.2156 0 28.9833 
40 1 2.2156 0 31.3333 
41 1 4.4312 0 32.1167 
43 1 1.1078 1.91877 32.1167 
47 1 5.539 1.91877 28.9833 
48 1 5.539 1.91877 31.3333 
38 1 3.41246e-07 0 35.25 
42 1 4.4312 0 34.4667 
44 1 1.1078 1.91877 34.4667 
46 1 3.3234 1.91877 35.25 
49 1 3.41246e-07 0 37.6 
51 1 2.2156 0 38.3833 
57 1 3.3234 1.91877 37.6 
59 1 5.539 1.91877 38.3833 
52 1 2.2156 0 40.7333 
53 1 4.4312 0 41.5167 
55 1 1.1078 1.91877 41.5167 
60 1 5.539 1.91877 40.7333 
50 1 3.41246e-07 0 44.65 
54 1 4.4312 0 43.8667 
56 1 1.1078 1.91877 43.8667 
58 1 3.3234 1.91877 44.65 
61 1 3.41246e-07 0 47 
63 1 2.2156 0 47.7833 
64 1 2.2156 0 50.1333 
69 1 3.3234 1.91877 47 
71 1 5.539 1.91877 47.7833 
72 1 5.539 1.91877 50.1333 
62 1 3.41246e-07 0 54.0539 
65 1 4.4312 0 50.9167 
66 1 4.4312 0 53.2628 
67 1 1.1078 1.91877 50.9167 
68 1 1.1078 1.91877 53.2628 
70 1 3.3234 1.91877 54.0539 
ITEM: TIMESTEP
2
ITEM: NUMBER OF ATOMS
72
ITEM: BOX BOUNDS pp pp ss
0 6.6468
0 3.83753
-0.00564 54.0556
ITEM: ATOMS id type x y z 
1 1 0 0 0 
3 1 2.2156 0 0.783333 
4 1 2.2156 0 3.13333 
9 1 3.3234 1.91877 0 
11 1 5.539 1.91877 0.783333 
12 1 5.539 1.91877 3.13333 
2 1 0 0 7.05 
5 1 4.4312 0 3.91667 
6 1 4.4312 0 6.26667 
7 1 1.1078 1.91877 3.91667 
8 1 1.1078 1.91877 6.26667 
10 1 3.3234 1.91877 7.05 
13 1 0 0 9.4 
15 1 2.2156 0 10.1833 
21 1 3.3234 1.91877 9.4 
23 1 5.539 1.91877 10.1833 
16 1 2.2156 0 12.5333 
17 1 4.4312 0 13.3167 
19 1 1.1078 1.91877 13.3167 
24 1 5.539 1.91877 12.5333 
14 1 0 0 16.45 
18 1 4.4312 0 15.6667 
20 1 1.1078 1.91877 15.6667 
22 1 3.3234 1.91877 16.45 
25 1 0 0 18.8 
27 1 2.2156 0 19.5833 
33 1 3.3234 1.91877 18.8 
35 1 5.539 1.91877 19.5833 
28 1 2.2156 0 21.9333 
29 1 4.4312 0 22.7167 
30 1 4.4312 0 25.0667 
31 1 1.1078 1.91877 22.7167 
32 1 1.1078 1.91877 25.0667 
36 1 5.539 1.91877 21.9333 
26 1 0 0 25.85 
34 1 3.3234 1.91877 25.85 
37 1 3.41246e-07 0 28.2 
45 1 3.3234 1.91877 28.2 
39 1 2.2156 0 28.9833 
40 1 2.2156 0 31.3333 
41 1 4.4312 0 32.1167 
43 1 1.1078 1.91877 32.1167 
47 1 5.539 1.91877 28.9833 
48 1 5.539 1.91877 31.3333 
38 1 3.41246e-07 0 35.25 
42 1 4.4312 0 34.4667 
44 1 1.1078 1.91877 34.4667 
46 1 3.3234 1.91877 35.25 
49 1 3.41246e-07 0 37.6 
51 1 2.2156 0 38.3833 
57 1 3.3234 1.91877 37.6 
59 1 5.539 1.91877 38.3833 
52 1 2.2156 0 40.7333 
53 1 4.4312 0 41.5167 
55 1 1.1078 1.91877 41.5167 
60 1 5.539 1.91877 40.7333 
50 1 3.41246e-07 0 44.65 
54 1 4.4312 0 43.8667 
56 1 1.1078 1.91877 43.8667 
58 1 3.3234 1.91877 44.65 
61 1 3.41246e-07 0 47 
63 1 2.2156 0 47.7833 
64 1 2.2156 0 50.1334 
69 1 3.3234 1.91877 47 
71 1 5.539 1.91877 47.7833 
72 1 5.539 1.91877 50.1334 
62 1 3.41246e-07 0 54.057 
65 1 4.4312 0 50.9133 
66 1 4.4312 0 53.2629 
67 1 1.1078 1.91877 50.9133 
68 1 1.1078 1.91877 53.2629 
70 1 3.3234 1.91877 54.057 
ITEM: TIMESTEP
3
ITEM: NUMBER OF ATOMS
72
ITEM: BOX BOUNDS pp pp ss
0 6.6468
0 3.83753
-0.00564 54.0556
ITEM: ATOMS id type x y z 
1 1 0 0 0 
3 1 2.2156 0 0.783333 
4 1 2.2156 0 3.13333 
9 1 3.3234 1.91877 0 
11 1 5.539 1.91877 0.783333 
12 1 5.539 1.91877 3.13333 
2 1 0 0 7.05 
5 1 4.4312 0 3.91667 
6 1 4.4312 0 6.26667 
7 1 1.1078 1.91877 3.91667 
8 1 1.1078 1.91877 6.26667 
10 1 3.3234 1.91877 7.05 
13 1 0 0 9.4 
15 1 2.2156 0 10.1833 
21 1 3.3234 1.91877 9.4 
23 1 5.539 1.91877 10.1833 
16 1 2.2156 0 12.5333 
17 1 4.4312 0 13.3167 
19 1 1.1078 1.91877 13.3167 
24 1 5.539 1.91877 12.5333 
14 1 0 0 16.45 
18 1 4.4312 0 15.6667 
20 1 1.1078 1.91877 15.6667 
22 1 3.3234 1.91877 16.45 
25 1 0 0 18.8 
27 1 2.2156 0 19.5833 
33 1 3.3234 1.91877 18.8 
35 1 5.539 1.91877 19.5833 
28 1 2.2156 0 21.9333 
29 1 4.4312 0 22.7167 
30 1 4.4312 0 25.0667 
31 1 1.1078 1.91877 22.7167 
32 1 1.1078 1.91877 25.0667 
36 1 5.539 1.91877 21.9333 
26 1 0 0 25.85 
34 1 3.3234 1.91877 25.85 
37 1 3.41246e-07 0 28.2 
45 1 3.3234 1.91877 28.2 
39 1 2.2156 0 28.9833 
40 1 2.2156 0 31.3333 
41 1 4.4312 0 32.1167 
43 1 1.1078 1.91877 32.1167 
47 1 5.539 1.91877 28.9833 
48 1 5.539 1.91877 31.3333 
38 1 3.41246e-07 0 35.25 
42 1 4.4312 0 34.4667 
44 1 1.1078 1.91877 34.4667 
46 1 3.3234 1.91877 35.25 
49 1 3.41246e-07 0 37.6 
51 1 2.2156 0 38.3833 
57 1 3.3234 1.91877 37.6 
59 1 5.539 1.91877 38.3833 
52 1 2.2156 0 40.7333 
53 1 4.4312 0 41.5167 
55 1 1.1078 1.91877 41.5167 
60 1 5.539 1.91877 40.7333 
50 1 3.41246e-07 0 44.65 
54 1 4.4312 0 43.8667 
56 1 1.1078 1.91877 43.8667 
58 1 3.3234 1.91877 44.65 
61 1 3.41246e-07 0 47 
63 1 2.2156 0 47.7834 
64 1 2.2156 0 50.1322 
69 1 3.3234 1.91877 47 
71 1 5.539 1.91877 47.7834 
72 1 5.539 1.91877 50.1322 
62 1 3.41246e-07 0 54.0586 
65 1 4.4312 0 50.913 
66 1 4.4312 0 53.2627 
67 1 1.1078 1.91877 50.913 
68 1 1.1078 1.91877 53.2627 
70 1 3.3234 1.91877 54.0586 
ITEM: TIMESTEP
4
ITEM: NUMBER OF ATOMS
72
ITEM: BOX BOUNDS pp pp ss
0 6.6468
0 3.83753
-0.00564 54.0556
ITEM: ATOMS id type x y z 
1 1 0 0 0 
3 1 2.2156 0 0.783333 
4 1 2.2156 0 3.13333 
9 1 3.3234 1.91877 0 
11 1 5.539 1.91877 0.783333 
12 1 5.539 1.91877 3.13333 
2 1 0 0 7.05 
5 1 4.4312 0 3.91667 
6 1 4.4312 0 6.26667 
7 1 1.1078 1.91877 3.91667 
8 1 1.1078 1.91877 6.26667 
10 1 3.3234 1.91877 7.05 
13 1 0 0 9.4 
15 1 2.2156 0 10.1833 
21 1 3.3234 1.91877 9.4 
23 1 5.539 1.91877 10.1833 
16 1 2.2156 0 12.5333 
17 1 4.4312 0 13.3167 
19 1 1.1078 1.91877 13.3167 
24 1 5.539 1.91877 12.5333 
14 1 0 0 16.45 
18 1 4.4312 0 15.6667 
20 1 1.1078 1.91877 15.6667 
22 1 3.3234 1.91877 16.45 
25 1 0 0 18.8 
27 1 2.2156 0 19.5833 
33 1 3.3234 1.91877 18.8 
35 1 5.539 1.91877 19.5833 
28 1 2.2156 0 21.9333 
29 1 4.4312 0 22.7167 
30 1 4.4312 0 25.0667 
31 1 1.1078 1.91877 22.7167 
32 1 1.1078 1.91877 25.0667 
36 1 5.539 1.91877 21.9333 
26 1 0 0 25.85 
34 1 3.3234 1.91877 25.85 
37 1 3.41246e-07 0 28.2 
45 1 3.3234 1.91877 28.2 
39 1 2.2156 0 28.9833 
40 1 2.2156 0 31.3333 
41 1 4.4312 0 32.1167 
43 1 1.1078 1.91877 32.1167 
47 1 5.539 1.91877 28.9833 
48 1 5.539 1.91877 31.3333 
38 1 3.41246e-07 0 35.25 
42 1 4.4312 0 34.4667 
44 1 1.1078 1.91877 34.4667 
46 1 3.3234 1.91877 35.25 
49 1 3.41246e-07 0 37.6 
51 1 2.2156 0 38.3833 
57 1 3.3234 1.91877 37.6 
59 1 5.539 1.91877 38.3833 
52 1 2.2156 0 40.7333 
53 1 4.4312 0 41.5167 
55 1 1.1078 1.91877 41.5167 
60 1 5.539 1.91877 40.7333 
50 1 3.41246e-07 0 44.65 
54 1 4.4312 0 43.8667 
56 1 1.1078 1.91877 43.8667 
58 1 3.3234 1.91877 44.65 
61 1 3.41246e-07 0 47.0001 
63 1 2.2156 0 47.7823 
64 1 2.2156 0 50.1316 
69 1 3.3234 1.91877 47.0001 
71 1 5.539 1.91877 47.7823 
72 1 5.539 1.91877 50.1316 
62 1 3.41246e-07 0 54.059 
65 1 4.4312 0 50.9138 
66 1 4.4312 0 53.2632 
67 1 1.1078 1.91877 50.9138 
68 1 1.1078 1.91877 53.2632 
70 1 3.3234 1.91877 54.059 
ITEM: TIMESTEP
5
ITEM: NUMBER OF ATOMS
72
ITEM: BOX BOUNDS pp pp ss
0 6.6468
0 3.83753
-0.00564 54.0556
ITEM: ATOMS id type x y z 
1 1 0 0 0 
3 1 2.2156 0 0.783333 
4 1 2.2156 0 3.13333 
9 1 3.3234 1.91877 0 
11 1 5.539 1.91877 0.783333 
12 1 5.539 1.91877 3.13333 
2 1 0 0 7.05 
5 1 4.4312 0 3.91667 
6 1 4.4312 0 6.26667 
7 1 1.1078 1.91877 3.91667 
8 1 1.1078 1.91877 6.26667 
10 1 3.3234 1.91877 7.05 
13 1 0 0 9.4 
15 1 2.2156 0 10.1833 
21 1 3.3234 1.91877 9.4 
23 1 5.539 1.91877 10.1833 
16 1 2.2156 0 12.5333 
17 1 4.4312 0 13.3167 
19 1 1.1078 1.91877 13.3167 
24 1 5.539 1.91877 12.5333 
14 1 0 0 16.45 
18 1 4.4312 0 15.6667 
20 1 1.1078 1.91877 15.6667 
22 1 3.3234 1.91877 16.45 
25 1 0 0 18.8 
27 1 2.2156 0 19.5833 
33 1 3.3234 1.91877 18.8 
35 1 5.539 1.91877 19.5833 
28 1 2.2156 0 21.9333 
29 1 4.4312 0 22.7167 
30 1 4.4312 0 25.0667 
31 1 1.1078 1.91877 22.7167 
32 1 1.1078 1.91877 25.0667 
36 1 5.539 1.91877 21.9333 
26 1 0 0 25.85 
34 1 3.3234 1.91877 25.85 
37 1 3.41246e-07 0 28.2 
45 1 3.3234 1.91877 28.2 
39 1 2.2156 0 28.9833 
40 1 2.2156 0 31.3333 
41 1 4.4312 0 32.1167 
43 1 1.1078 1.91877 32.1167 
47 1 5.539 1.91877 28.9833 
48 1 5.539 1.91877 31.3333 
38 1 3.41246e-07 0 35.25 
42 1 4.4312 0 34.4667 
44 1 1.1078 1.91877 34.4667 
46 1 3.3234 1.91877 35.25 
49 1 3.41246e-07 0 37.6 
51 1 2.2156 0 38.3833 
57 1 3.3234 1.91877 37.6 
59 1 5.539 1.91877 38.3833 
52 1 2.2156 0 40.7333 
53 1 4.4312 0 41.5167 
55 1 1.1078 1.91877 41.5167 
60 1 5.539 1.91877 40.7333 
50 1 3.41246e-07 0 44.6501 
54 1 4.4312 0 43.8667 
56 1 1.1078 1.91877 43.8667 
58 1 3.3234 1.91877 44.6501 
61 1 3.41246e-07 0 46.9996 
63 1 2.2156 0 47.7819 
64 1 2.2156 0 50.1313 
69 1 3.3234 1.91877 46.9996 
71 1 5.539 1.91877 47.7819 
72 1 5.539 1.91877 50.1313 
62 1 3.41246e-07 0 54.0592 
65 1 4.4312 0 50.914 
66 1 4.4312 0 53.2639 
67 1 1.1078 1.91877 50.914 
68 1 1.1078 1.91877 53.2639 
70 1 3.3234 1.91877 54.0592 
ITEM: TIMESTEP
6
ITEM: NUMBER OF ATOMS
72
ITEM: BOX BOUNDS pp pp ss
0 6.6468
0 3.83753
-0.00564 54.0556
ITEM: ATOMS id type x y z 
1 1 0 0 0 
3 1 2.2156 0 0.783333 
4 1 2.2156 0 3.13333 
9 1 3.3234 1.91877 0 
11 1 5.539 1.91877 0.783333 
12 1 5.539 1.91877 3.13333 
2 1 0 0 7.05 
5 1 4.4312 0 3.91667 
6 1 4.4312 0 6.26667 
7 1 1.1078 1.91877 3.91667 
8 1 1.1078 1.91877 6.26667 
10 1 3.3234 1.91877 7.05 
13 1 0 0 9.4 
15 1 2.2156 0 10.1833 
21 1 3.3234 1.91877 9.4 
23 1 5.539 1.91877 10.1833 
16 1 2.2156 0 12.5333 
17 1 4.4312 0 13.3167 
19 1 1.1078 1.91877 13.3167 
24 1 5.539 1.91877 12.5333 
14 1 0 0 16.45 
18 1 4.4312 0 15.6667 
20 1 1.1078 1.91877 15.6667 
22 1 3.3234 1.91877 16.45 
25 1 0 0 18.8 
27 1 2.2156 0 19.5833 
33 1 3.3234 1.91877 18.8 
35 1 5.539 1.91877 19.5833 
28 1 2.2156 0 21.9333 
29 1 4.4312 0 22.7167 
30 1 4.4312 0 25.0667 
31 1 1.1078 1.91877 22.7167 
32 1 1.1078 1.91877 25.0667 
36 1 5.539 1.91877 21.9333 
26 1 0 0 25.85 
34 1 3.3234 1.91877 25.85 
37 1 3.41246e-07 0 28.2 
45 1 3.3234 1.91877 28.2 
39 1 2.2156 0 28.9833 
40 1 2.2156 0 31.3333 
41 1 4.4312 0 32.1167 
43 1 1.1078 1.91877 32.1167 
47 1 5.539 1.91877 28.9833 
48 1 5.539 1.91877 31.3333 
38 1 3.41246e-07 0 35.25 
42 1 4.4312 0 34.4667 
44 1 1.1078 1.91877 34.4667 
46 1 3.3234 1.91877 35.25 
49 1 3.41246e-07 0 37.6 
51 1 2.2156 0 38.3833 
57 1 3.3234 1.91877 37.6 
59 1 5.539 1.91877 38.3833 
52 1 2.2156 0 40.7333 
53 1 4.4312 0 41.5167 
55 1 1.1078 1.91877 41.5167 
60 1 5.539 1.91877 40.7333 
50 1 3.41246e-07 0 44.6494 
54 1 4.4312 0 43.8668 
56 1 1.1078 1.91877 43.8668 
58 1 3.3234 1.91877 44.6494 
61 1 3.41246e-07 0 46.999 
63 1 2.2156 0 47.7818 
64 1 2.2156 0 50.1312 
69 1 3.3234 1.91877 46.999 
71 1 5.539 1.91877 47.7818 
72 1 5.539 1.91877 50.1312 
62 1 3.41246e-07 0 54.06 
65 1 4.4312 0 50.9142 
66 1 4.4312 0 53.2644 
67 1 1.1078 1.91877 50.9142 
68 1 1.1078 1.91877 53.2644 
70 1 3.3234 1.91877 54.06 
ITEM: TIMESTEP
7
ITEM: NUMBER OF ATOMS
72
ITEM: BOX BOUNDS pp pp ss
0 6.6468
0 3.83753
-0.00564 54.0556
ITEM: ATOMS id type x y z 
1 1 0 0 0 
3 1 2.2156 0 0.783333 
4 1 2.2156 0 3.13333 
9 1 3.3234 1.91877 0 
11 1 5.539 1.91877 0.783333 
12 1 5.539 1.91877 3.13333 
2 1 0 0 7.05 
5 1 4.4312 0 3.91667 
6 1 4.4312 0 6.26667 
7 1 1.1078 1.91877 3.91667 
8 1 1.1078 1.91877 6.26667 
10 1 3.3234 1.91877 7.05 
13 1 0 0 9.4 
15 1 2.2156 0 10.1833 
21 1 3.3234 1.91877 9.4 
23 1 5.539 1.91877 10.1833 
16 1 2.2156 0 12.5333 
17 1 4.4312 0 13.3167 
19 1 1.1078 1.91877 13.3167 
24 1 5.539 1.91877 12.5333 
14 1 0 0 16.45 
18 1 4.4312 0 15.6667 
20 1 1.1078 1.91877 15.6667 
22 1 3.3234 1.91877 16.45 
25 1 0 0 18.8 
27 1 2.2156 0 19.5833 
33 1 3.3234 1.91877 18.8 
35 1 5.539 1.91877 19.5833 
28 1 2.2156 0 21.9333 
29 1 4.4312 0 22.7167 
30 1 4.4312 0 25.0667 
31 1 1.1078 1.91877 22.7167 
32 1 1.1078 1.91877 25.0667 
36 1 5.539 1.91877 21.9333 
26 1 0 0 25.85 
34 1 3.3234 1.91877 25.85 
37 1 3.41246e-07 0 28.2 
45 1 3.3234 1.91877 28.2 
39 1 2.2156 0 28.9833 
40 1 2.2156 0 31.3333 
41 1 4.4312 0 32.1167 
43 1 1.1078 1.91877 32.1167 
47 1 5.539 1.91877 28.9833 
48 1 5.539 1.91877 31.3333 
38 1 3.41246e-07 0 35.25 
42 1 4.4312 0 34.4667 
44 1 1.1078 1.91877 34.4667 
46 1 3.3234 1.91877 35.25 
49 1 3.41246e-07 0 37.6 
51 1 2.2156 0 38.3833 
57 1 3.3234 1.91877 37.6 
59 1 5.539 1.91877 38.3833 
52 1 2.2156 0 40.7333 
53 1 4.4312 0 41.5167 
55 1 1.1078 1.91877 41.5167 
60 1 5.539 1.91877 40.7333 
50 1 3.41246e-07 0 44.6491 
54 1 4.4312 0 43.8664 
56 1 1.1078 1.91877 43.8664 
58 1 3.3234 1.91877 44.6491 
61 1 3.41246e-07 0 46.9987 
63 1 2.2156 0 47.7816 
64 1 2.2156 0 50.1313 
69 1 3.3234 1.91877 46.9987 
71 1 5.539 1.91877 47.7816 
72 1 5.539 1.91877 50.1313 
62 1 3.41246e-07 0 54.0606 
65 1 4.4312 0 50.9143 
66 1 4.4312 0 53.2645 
67 1 1.1078 1.91877 50.9143 
68 1 1.1078 1.91877 53.2645 
70 1 3.3234 1.91877 54.0606 
ITEM: TIMESTEP
8
ITEM: NUMBER OF ATOMS
72
ITEM: BOX BOUNDS pp pp ss
0 6.6468
0 3.83753
-0.00564 54.0556
ITEM: ATOMS id type x y z 
1 1 0 0 0 
3 1 2.2156 0 0.783333 
4 1 2.2156 0 3.13333 
9 1 3.3234 1.91877 0 
11 1 5.539 1.91877 0.783333 
12 1 5.539 1.91877 3.13333 
2 1 0 0 7.05 
5 1 4.4312 0 3.91667 
6 1 4.4312 0 6.26667 
7 1 1.1078 1.91877 3.91667 
8 1 1.1078 1.91877 6.26667 
10 1 3.3234 1.91877 7.05 
13 1 0 0 9.4 
15 1 2.2156 0 10.1833 
21 1 3.3234 1.91877 9.4 
23 1 5.539 1.91877 10.1833 
16 1 2.2156 0 12.5333 
17 1 4.4312 0 13.3167 
19 1 1.1078 1.91877 13.3167 
24 1 5.539 1.91877 12.5333 
14 1 0 0 16.45 
18 1 4.4312 0 15.6667 
20 1 1.1078 1.91877 15.6667 
22 1 3.3234 1.91877 16.45 
25 1 0 0 18.8 
27 1 2.2156 0 19.5833 
33 1 3.3234 1.91877 18.8 
35 1 5.539 1.91877 19.5833 
28 1 2.2156 0 21.9333 
29 1 4.4312 0 22.7167 
30 1 4.4312 0 25.0667 
31 1 1.1078 1.91877 22.7167 
32 1 1.1078 1.91877 25.0667 
36 1 5.539 1.91877 21.9333 
26 1 0 0 25.85 
34 1 3.3234 1.91877 25.85 
37 1 3.41246e-07 0 28.2 
45 1 3.3234 1.91877 28.2 
39 1 2.2156 0 28.9833 
40 1 2.2156 0 31.3333 
41 1 4.4312 0 32.1167 
43 1 1.1078 1.91877 32.1167 
47 1 5.539 1.91877 28.9833 
48 1 5.539 1.91877 31.3333 
38 1 3.41246e-07 0 35.25 
42 1 4.4312 0 34.4667 
44 1 1.1078 1.91877 34.4667 
46 1 3.3234 1.91877 35.25 
49 1 3.41246e-07 0 37.6 
51 1 2.2156 0 38.3833 
57 1 3.3234 1.91877 37.6 
59 1 5.539 1.91877 38.3833 
52 1 2.2156 0 40.7334 
53 1 4.4312 0 41.5163 
55 1 1.1078 1.91877 41.5163 
60 1 5.539 1.91877 40.7334 
50 1 3.41246e-07 0 44.649 
54 1 4.4312 0 43.8661 
56 1 1.1078 1.91877 43.8661 
58 1 3.3234 1.91877 44.649 
61 1 3.41246e-07 0 46.9987 
63 1 2.2156 0 47.7816 
64 1 2.2156 0 50.1314 
69 1 3.3234 1.91877 46.9987 
71 1 5.539 1.91877 47.7816 
72 1 5.539 1.91877 50.1314 
62 1 3.41246e-07 0 54.0609 
65 1 4.4312 0 50.9145 
66 1 4.4312 0 53.2648 
67 1 1.1078 1.91877 50.9145 
68 1 1.1078 1.91877 53.2648 
70 1 3.3234 1.91877 54.0609 
ITEM: TIMESTEP
9
ITEM: NUMBER OF ATOMS
72
ITEM: BOX BOUNDS pp pp ss
0 6.6468
0 3.83753
-0.00564 54.0556
ITEM: ATOMS id type x y z 
1 1 0 0 0 
3 1 2.2156 0 0.783333 
4 1 2.2156 0 3.13333 
9 1 3.3234 1.91877 0 
11 1 5.539 1.91877 0.783333 
12 1 5.539 1.91877 3.13333 
2 1 0 0 7.05 
5 1 4.4312 0 3.91667 
6 1 4.4312 0 6.26667 
7 1 1.1078 1.91877 3.91667 
8 1 1.1078 1.91877 6.26667 
10 1 3.3234 1.91877 7.05 
13 1 0 0 9.4 
15 1 2.2156 0 10.1833 
21 1 3.3234 1.91877 9.4 
23 1 5.539 1.91877 10.1833 
16 1 2.2156 0 12.5333 
17 1 4.4312 0 13.3167 
19 1 1.1078 1.91877 13.3167 
24 1 5.539 1.91877 12.5333 
14 1 0 0 16.45 
18 1 4.4312 0 15.6667 
20 1 1.1078 1.91877 15.6667 
22 1 3.3234 1.91877 16.45 
25 1 0 0 18.8 
27 1 2.2156 0 19.5833 
33 1 3.3234 1.91877 18.8 
35 1 5.539 1.91877 19.5833 
28 1 2.2156 0 21.9333 
29 1 4.4312 0 22.7167 
30 1 4.4312 0 25.0667 
31 1 1.1078 1.91877 22.7167 
32 1 1.1078 1.91877 25.0667 
36 1 5.539 1.91877 21.9333 
26 1 0 0 25.85 
34 1 3.3234 1.91877 25.85 
37 1 3.41246e-07 0 28.2 
45 1 3.3234 1.91877 28.2 
39 1 2.2156 0 28.9833 
40 1 2.2156 0 31.3333 
41 1 4.4312 0 32.1167 
43 1 1.1078 1.91877 32.1167 
47 1 5.539 1.91877 28.9833 
48 1 5.539 1.91877 31.3333 
38 1 3.41246e-07 0 35.25 
42 1 4.4312 0 34.4667 
44 1 1.1078 1.91877 34.4667 
46 1 3.3234 1.91877 35.25 
49 1 3.41246e-07 0 37.6 
51 1 2.2156 0 38.3834 
57 1 3.3234 1.91877 37.6 
59 1 5.539 1.91877 38.3834 
52 1 2.2156 0 40.7332 
53 1 4.4312 0 41.5161 
55 1 1.1078 1.91877 41.5161 
60 1 5.539 1.91877 40.7332 
50 1 3.41246e-07 0 44.6489 
54 1 4.4312 0 43.8659 
56 1 1.1078 1.91877 43.8659 
58 1 3.3234 1.91877 44.6489 
61 1 3.41246e-07 0 46.9987 
63 1 2.2156 0 47.7816 
64 1 2.2156 0 50.1314 
69 1 3.3234 1.91877 46.9987 
71 1 5.539 1.91877 47.7816 
72 1 5.539 1.91877 50.1314 
62 1 3.41246e-07 0 54.0611 
65 1 4.4312 0 50.9147 
66 1 4.4312 0 53.265 
67 1 1.1078 1.91877 50.9147 
68 1 1.1078 1.91877 53.265 
70 1 3.3234 1.91877 54.0611 
ITEM: TIMESTEP
10
ITEM: NUMBER OF ATOMS
72
ITEM: BOX BOUNDS pp pp ss
0 6.6468
0 3.83753
-0.00564 54.0556
ITEM: ATOMS id type x y z 
1 1 0 0 0 
3 1 2.2156 0 0.783333 
4 1 2.2156 0 3.13333 
9 1 3.3234 1.91877 0 
11 1 5.539 1.91877 0.783333 
12 1 5.539 1.91877 3.13333 
2 1 0 0 7.05 
5 1 4.4312 0 3.91667 
6 1 4.4312 0 6.26667 
7 1 1.1078 1.91877 3.91667 
8 1 1.1078 1.91877 6.26667 
10 1 3.3234 1.91877 7.05 
13 1 0 0 9.4 
15 1 2.2156 0 10.1833 
21 1 3.3234 1.91877 9.4 
23 1 5.539 1.91877 10.1833 
16 1 2.2156 0 12.5333 
17 1 4.4312 0 13.3167 
19 1 1.1078 1.91877 13.3167 
24 1 5.539 1.91877 12.5333 
14 1 0 0 16.45 
18 1 4.4312 0 15.6667 
20 1 1.1078 1.91877 15.6667 
22 1 3.3234 1.91877 16.45 
25 1 0 0 18.8 
27 1 2.2156 0 19.5833 
33 1 3.3234 1.91877 18.8 
35 1 5.539 1.91877 19.5833 
28 1 2.2156 0 21.9333 
29 1 4.4312 0 22.7167 
30 1 4.4312 0 25.0667 
31 1 1.1078 1.91877 22.7167 
32 1 1.1078 1.91877 25.0667 
36 1 5.539 1.91877 21.9333 
26 1 0 0 25.85 
34 1 3.3234 1.91877 25.85 
37 1 3.41246e-07 0 28.2 
45 1 3.3234 1.91877 28.2 
39 1 2.2156 0 28.9833 
40 1 2.2156 0 31.3333 
41 1 4.4312 0 32.1167 
43 1 1.1078 1.91877 32.1167 
47 1 5.539 1.91877 28.9833 
48 1 5.539 1.91877 31.3333 
38 1 3.41246e-07 0 35.25 
42 1 4.4312 0 34.4667 
44 1 1.1078 1.91877 34.4667 
46 1 3.3234 1.91877 35.25 
49 1 3.41246e-07 0 37.6001 
51 1 2.2156 0 38.3831 
57 1 3.3234 1.91877 37.6001 
59 1 5.539 1.91877 38.3831 
52 1 2.2156 0 40.7329 
53 1 4.4312 0 41.516 
55 1 1.1078 1.91877 41.516 
60 1 5.539 1.91877 40.7329 
50 1 3.41246e-07 0 44.6488 
54 1 4.4312 0 43.8657 
56 1 1.1078 1.91877 43.8657 
58 1 3.3234 1.91877 44.6488 
61 1 3.41246e-07 0 46.9987 
63 1 2.2156 0 47.7817 
64 1 2.2156 0 50.1316 
69 1 3.3234 1.91877 46.9987 
71 1 5.539 1.91877 47.7817 
72 1 5.539 1.91877 50.1316 
62 1 3.41246e-07 0 54.0613 
65 1 4.4312 0 50.9149 
66 1 4.4312 0 53.2652 
67 1 1.1078 1.91877 50.9149 
68 1 1.1078 1.91877 53.2652 
70 1 3.3234 1.91877 54.0613 
ITEM: TIMESTEP
11
ITEM: NUMBER OF ATOMS
72
ITEM: BOX BOUNDS pp pp ss
0 6.6468
0 3.83753
-0.00564 54.0556
ITEM: ATOMS id type x y z 
1 1 0 0 0 
3 1 2.2156 0 0.783333 
4 1 2.2156 0 3.13333 
9 1 3.3234 1.91877 0 
11 1 5.539 1.91877 0.783333 
12 1 5.539 1.91877 3.13333 
2 1 0 0 7.05 
5 1 4.4312 0 3.91667 
6 1 4.4312 0 6.26667 
7 1 1.1078 1.91877 3.91667 
8 1 1.1078 1.91877 6.26667 
10 1 3.3234 1.91877 7.05 
13 1 0 0 9.4 
15 1 2.2156 0 10.1833 
21 1 3.3234 1.91877 9.4 
23 1 5.539 1.91877 10.1833 
16 1 2.2156 0 12.5333 
17 1 4.4312 0 13.3167 
19 1 1.1078 1.91877 13.3167 
24 1 5.539 1.91877 12.5333 
14 1 0 0 16.45 
18 1 4.4312 0 15.6667 
20 1 1.1078 1.91877 15.6667 
22 1 3.3234 1.91877 16.45 
25 1 0 0 18.8 
27 1 2.2156 0 19.5833 
33 1 3.3234 1.91877 18.8 
35 1 5.539 1.91877 19.5833 
28 1 2.2156 0 21.9333 
29 1 4.4312 0 22.7167 
30 1 4.4312 0 25.0667 
31 1 1.1078 1.91877 22.7167 
32 1 1.1078 1.91877 25.0667 
36 1 5.539 1.91877 21.9333 
26 1 0 0 25.85 
34 1 3.3234 1.91877 25.85 
37 1 3.41246e-07 0 28.2 
45 1 3.3234 1.91877 28.2 
39 1 2.2156 0 28.9833 
40 1 2.2156 0 31.3333 
41 1 4.4312 0 32.1167 
43 1 1.1078 1.91877 32.1167 
47 1 5.539 1.91877 28.9833 
48 1 5.539 1.91877 31.3333 
38 1 3.41246e-07 0 35.25 
42 1 4.4312 0 34.4667 
44 1 1.1078 1.91877 34.4667 
46 1 3.3234 1.91877 35.25 
49 1 3.41246e-07 0 37.5999 
51 1 2.2156 0 38.383 
57 1 3.3234 1.91877 37.5999 
59 1 5.539 1.91877 38.383 
52 1 2.2156 0 40.7328 
53 1 4.4312 0 41.5159 
55 1 1.1078 1.91877 41.5159 
60 1 5.539 1.91877 40.7328 
50 1 3.41246e-07 0 44.6488 
54 1 4.4312 0 43.8657 
56 1 1.1078 1.91877 43.8657 
58 1 3.3234 1.91877 44.6488 
61 1 3.41246e-07 0 46.9986 
63 1 2.2156 0 47.7818 
64 1 2.2156 0 50.1318 
69 1 3.3234 1.91877 46.9986 
71 1 5.539 1.91877 47.7818 
72 1 5.539 1.91877 50.1318 
62 1 3.41246e-07 0 54.0614 
65 1 4.4312 0 50.915 
66 1 4.4312 0 53.2653 
67 1 1.1078 1.91877 50.915 
68 1 1.1078 1.91877 53.2653 
70 1 3.3234 1.91877 54.0614 
ITEM: TIMESTEP
12
ITEM: NUMBER OF ATOMS
72
ITEM: BOX BOUNDS pp pp ss
0 6.6468
0 3.83753
-0.00564 54.0556
ITEM: ATOMS id type x y z 
1 1 0 0 0 
3 1 2.2156 0 0.783333 
4 1 2.2156 0 3.13333 
9 1 3.3234 1.91877 0 
11 1 5.539 1.91877 0.783333 
12 1 5.539 1.91877 3.13333 
2 1 0 0 7.05 
5 1 4.4312 0 3.91667 
6 1 4.4312 0 6.26667 
7 1 1.1078 1.91877 3.91667 
8 1 1.1078 1.91877 6.26667 
10 1 3.3234 1.91877 7.05 
13 1 0 0 9.4 
15 1 2.2156 0 10.1833 
21 1 3.3234 1.91877 9.4 
23 1 5.539 1.91877 10.1833 
16 1 2.2156 0 12.5333 
17 1 4.4312 0 13.3167 
19 1 1.1078 1.91877 13.3167 
24 1 5.539 1.91877 12.5333 
14 1 0 0 16.45 
18 1 4.4312 0 15.6667 
20 1 1.1078 1.91877 15.6667 
22 1 3.3234 1.91877 16.45 
25 1 0 0 18.8 
27 1 2.2156 0 19.5833 
33 1 3.3234 1.91877 18.8 
35 1 5.539 1.91877 19.5833 
28 1 2.2156 0 21.9333 
29 1 4.4312 0 22.7167 
30 1 4.4312 0 25.0667 
31 1 1.1078 1.91877 22.7167 
32 1 1.1078 1.91877 25.0667 
36 1 5.539 1.91877 21.9333 
26 1 0 0 25.85 
34 1 3.3234 1.91877 25.85 
37 1 3.41246e-07 0 28.2 
45 1 3.3234 1.91877 28.2 
39 1 2.2156 0 28.9833 
40 1 2.2156 0 31.3333 
41 1 4.4312 0 32.1167 
43 1 1.1078 1.91877 32.1167 
47 1 5.539 1.91877 28.9833 
48 1 5.539 1.91877 31.3333 
38 1 3.41246e-07 0 35.2499 
42 1 4.4312 0 34.4667 
44 1 1.1078 1.91877 34.4667 
46 1 3.3234 1.91877 35.2499 
49 1 3.41246e-07 0 37.5997 
51 1 2.2156 0 38.3829 
57 1 3.3234 1.91877 37.5997 
59 1 5.539 1.91877 38.3829 
52 1 2.2156 0 40.7327 
53 1 4.4312 0 41.5158 
55 1 1.1078 1.91877 41.5158 
60 1 5.539 1.91877 40.7327 
50 1 3.41246e-07 0 44.6488 
54 1 4.4312 0 43.8657 
56 1 1.1078 1.91877 43.8657 
58 1 3.3234 1.91877 44.6488 
61 1 3.41246e-07 0 46.9987 
63 1 2.2156 0 47.7819 
64 1 2.2156 0 50.1319 
69 1 3.3234 1.91877 46.9987 
71 1 5.539 1.91877 47.7819 
72 1 5.539 1.91877 50.1319 
62 1 3.41246e-07 0 54.0615 
65 1 4.4312 0 50.9151 
66 1 4.4312 0 53.2655 
67 1 1.1078 1.91877 50.9151 
68 1 1.1078 1.91877 53.2655 
70 1 3.3234 1.91877 54.0615 
ITEM: TIMESTEP
13
ITEM: NUMBER OF ATOMS
72
ITEM: BOX BOUNDS pp pp ss
0 6.6468
0 3.83753
-0.00564 54.0556
ITEM: ATOMS id type x y z 
1 1 0 0 0 
3 1 2.2156 0 0.783333 
4 1 2.2156 0 3.13333 
9 1 3.3234 1.91877 0 
11 1 5.539 1.91877 0.783333 
12 1 5.539 1.91877 3.13333 
2 1 0 0 7.05 
5 1 4.4312 0 3.91667 
6 1 4.4312 0 6.26667 
7 1 1.1078 1.91877 3.91667 
8 1 1.1078 1.91877 6.26667 
10 1 3.3234 1.91877 7.05 
13 1 0 0 9.4 
15 1 2.2156 0 10.1833 
21 1 3.3234 1.91877 9.4 
23 1 5.539 1.91877 10.1833 
16 1 2.2156 0 12.5333 
17 1 4.4312 0 13.3167 
19 1 1.1078 1.91877 13.3167 
24 1 5.539 1.91877 12.5333 
14 1 0 0 16.45 
18 1 4.4312 0 15.6667 
20 1 1.1078 1.91877 15.6667 
22 1 3.3234 1.91877 16.45 
25 1 0 0 18.8 
27 1 2.2156 0 19.5833 
33 1 3.3234 1.91877 18.8 
35 1 5.539 1.91877 19.5833 
28 1 2.2156 0 21.9333 
29 1 4.4312 0 22.7167 
30 1 4.4312 0 25.0667 
31 1 1.1078 1.91877 22.7167 
32 1 1.1078 1.91877 25.0667 
36 1 5.539 1.91877 21.9333 
26 1 0 0 25.85 
34 1 3.3234 1.91877 25.85 
37 1 3.41246e-07 0 28.2 
45 1 3.3234 1.91877 28.2 
39 1 2.2156 0 28.9833 
40 1 2.2156 0 31.3333 
41 1 4.4312 0 32.1167 
43 1 1.1078 1.91877 32.1167 
47 1 5.539 1.91877 28.9833 
48 1 5.539 1.91877 31.3333 
38 1 3.41246e-07 0 35.2497 
42 1 4.4312 0 34.4666 
44 1 1.1078 1.91877 34.4666 
46 1 3.3234 1.91877 35.2497 
49 1 3.41246e-07 0 37.5996 
51 1 2.2156 0 38.3828 
57 1 3.3234 1.91877 37.5996 
59 1 5.539 1.91877 38.3828 
52 1 2.2156 0 40.7326 
53 1 4.4312 0 41.5157 
55 1 1.1078 1.91877 41.5157 
60 1 5.539 1.91877 40.7326 
50 1 3.41246e-07 0 44.6488 
54 1 4.4312 0 43.8656 
56 1 1.1078 1.91877 43.8656 
58 1 3.3234 1.91877 44.6488 
61 1 3.41246e-07 0 46.9987 
63 1 2.2156 0 47.782 
64 1 2.2156 0 50.1319 
69 1 3.3234 1.91877 46.9987 
71 1 5.539 1.91877 47.782 
72 1 5.539 1.91877 50.1319 
62 1 3.41246e-07 0 54.0616 
65 1 4.4312 0 50.9152 
66 1 4.4312 0 53.2656 
67 1 1.1078 1.91877 50.9152 
68 1 1.1078 1.91877 53.2656 
70 1 3.3234 1.91877 54.0616 
ITEM: TIMESTEP
14
ITEM: NUMBER OF ATOMS
72
ITEM: BOX BOUNDS pp pp ss
0 6.6468
0 3.83753
-0.00564 54.0556
ITEM: ATOMS id type x y z 
1 1 0 0 0 
3 1 2.2156 0 0.783333 
4 1 2.2156 0 3.13333 
9 1 3.3234 1.91877 0 
11 1 5.539 1.91877 0.783333 
12 1 5.539 1.91877 3.13333 
2 1 0 0 7.05 
5 1 4.4312 0 3.91667 
6 1 4.4312 0 6.26667 
7 1 1.1078 1.91877 3.91667 
8 1 1.1078 1.91877 6.26667 
10 1 3.3234 1.91877 7.05 
13 1 0 0 9.4 
15 1 2.2156 0 10.1833 
21 1 3.3234 1.91877 9.4 
23 1 5.539 1.91877 10.1833 
16 1 2.2156 0 12.5333 
17 1 4.4312 0 13.3167 
19 1 1.1078 1.91877 13.3167 
24 1 5.539 1.91877 12.5333 
14 1 0 0 16.45 
18 1 4.4312 0 15.6667 
20 1 1.1078 1.91877 15.6667 
22 1 3.3234 1.91877 16.45 
25 1 0 0 18.8 
27 1 2.2156 0 19.5833 
33 1 3.3234 1.91877 18.8 
35 1 5.539 1.91877 19.5833 
28 1 2.2156 0 21.9333 
29 1 4.4312 0 22.7167 
30 1 4.4312 0 25.0667 
31 1 1.1078 1.91877 22.7167 
32 1 1.1078 1.91877 25.0667 
36 1 5.539 1.91877 21.9333 
26 1 0 0 25.85 
34 1 3.3234 1.91877 25.85 
37 1 3.41246e-07 0 28.2 
45 1 3.3234 1.91877 28.2 
39 1 2.2156 0 28.9833 
40 1 2.2156 0 31.3334 
41 1 4.4312 0 32.1166 
43 1 1.1078 1.91877 32.1166 
47 1 5.539 1.91877 28.9833 
48 1 5.539 1.91877 31.3334 
38 1 3.41246e-07 0 35.2496 
42 1 4.4312 0 34.4665 
44 1 1.1078 1.91877 34.4665 
46 1 3.3234 1.91877 35.2496 
49 1 3.41246e-07 0 37.5995 
51 1 2.2156 0 38.3827 
57 1 3.3234 1.91877 37.5995 
59 1 5.539 1.91877 38.3827 
52 1 2.2156 0 40.7326 
53 1 4.4312 0 41.5157 
55 1 1.1078 1.91877 41.5157 
60 1 5.539 1.91877 40.7326 
50 1 3.41246e-07 0 44.6489 
54 1 4.4312 0 43.8656 
56 1 1.1078 1.91877 43.8656 
58 1 3.3234 1.91877 44.6489 
61 1 3.41246e-07 0 46.9988 
63 1 2.2156 0 47.7821 
64 1 2.2156 0 50.132 
69 1 3.3234 1.91877 46.9988 
71 1 5.539 1.91877 47.7821 
72 1 5.539 1.91877 50.132 
62 1 3.41246e-07 0 54.0617 
65 1 4.4312 0 50.9153 
66 1 4.4312 0 53.2657 
67 1 1.1078 1.91877 50.9153 
68 1 1.1078 1.91877 53.2657 
70 1 3.3234 1.91877 54.0617 
ITEM: TIMESTEP
15
ITEM: NUMBER OF ATOMS
72
ITEM: BOX BOUNDS pp pp ss
0 6.6468
0 3.83753
-0.00564 54.0556
ITEM: ATOMS id type x y z 
1 1 0 0 0 
3 1 2.2156 0 0.783333 
4 1 2.2156 0 3.13333 
9 1 3.3234 1.91877 0 
11 1 5.539 1.91877 0.783333 
12 1 5.539 1.91877 3.13333 
2 1 0 0 7.05 
5 1 4.4312 0 3.91667 
6 1 4.4312 0 6.26667 
7 1 1.1078 1.91877 3.91667 
8 1 1.1078 1.91877 6.26667 
10 1 3.3234 1.91877 7.05 
13 1 0 0 9.4 
15 1 2.2156 0 10.1833 
21 1 3.3234 1.91877 9.4 
23 1 5.539 1.91877 10.1833 
16 1 2.2156 0 12.5333 
17 1 4.4312 0 13.3167 
19 1 1.1078 1.91877 13.3167 
24 1 5.539 1.91877 12.5333 
14 1 0 0 16.45 
18 1 4.4312 0 15.6667 
20 1 1.1078 1.91877 15.6667 
22 1 3.3234 1.91877 16.45 
25 1 0 0 18.8 
27 1 2.2156 0 19.5833 
33 1 3.3234 1.91877 18.8 
35 1 5.539 1.91877 19.5833 
28 1 2.2156 0 21.9333 
29 1 4.4312 0 22.7167 
30 1 4.4312 0 25.0667 
31 1 1.1078 1.91877 22.7167 
32 1 1.1078 1.91877 25.0667 
36 1 5.539 1.91877 21.9333 
26 1 0 0 25.85 
34 1 3.3234 1.91877 25.85 
37 1 3.41246e-07 0 28.2 
45 1 3.3234 1.91877 28.2 
39 1 2.2156 0 28.9834 
40 1 2.2156 0 31.3333 
41 1 4.4312 0 32.1165 