 
 250 atoms 
 
 1 atom types
 0.00000000000000000000 17.50614779104281382160 xlo xhi
 0.00000000000000000000 17.43640218231356087131 ylo yhi
 0.00000000000000000000 17.43640218231356087131 zlo zhi
 0.00000000000000106767 0.00000000000000106767 0.00000000000000106767 xy xz yz
 
 Atoms 
 
	1	1	0.00000000000000000000	0.00000000000000000000	0.00000000000000000000
	2	1	1.74364021823135595390	1.74364021823135617595	1.74364021823135617595
	3	1	0.00000000000000021353	0.00000000000000021353	3.48728043646271235190
	4	1	1.74364021823135617595	1.74364021823135639799	5.23092065469406897193
	5	1	0.00000000000000042707	0.00000000000000042707	6.97456087292542470379
	6	1	1.74364021823135639799	1.74364021823135662004	8.71820109115678043565
	7	1	0.00000000000000064060	0.00000000000000064060	10.46184130938813794387
	8	1	1.74364021823135662004	1.74364021823135684208	12.20548152761949367573
	9	1	0.00000000000000085414	0.00000000000000085414	13.94912174585084940759
	10	1	1.74364021823135684208	1.74364021823135706413	15.69276196408220513945
	11	1	0.00000000000000021353	3.48728043646271235190	0.00000000000000000000
	12	1	1.74364021823135617595	5.23092065469406897193	1.74364021823135617595
	13	1	0.00000000000000042707	3.48728043646271235190	3.48728043646271235190
	14	1	1.74364021823135639799	5.23092065469406897193	5.23092065469406897193
	15	1	0.00000000000000064060	3.48728043646271279599	6.97456087292542470379
	16	1	1.74364021823135662004	5.23092065469406986011	8.71820109115678043565
	17	1	0.00000000000000085414	3.48728043646271279599	10.46184130938813794387
	18	1	1.74364021823135684208	5.23092065469406986011	12.20548152761949367573
	19	1	0.00000000000000106767	3.48728043646271324008	13.94912174585084940759
	20	1	1.74364021823135706413	5.23092065469406986011	15.69276196408220513945
	21	1	0.00000000000000042707	6.97456087292542470379	0.00000000000000000000
	22	1	1.74364021823135639799	8.71820109115678043565	1.74364021823135617595
	23	1	0.00000000000000064060	6.97456087292542470379	3.48728043646271235190
	24	1	1.74364021823135662004	8.71820109115678043565	5.23092065469406897193
	25	1	0.00000000000000085414	6.97456087292542470379	6.97456087292542470379
	26	1	1.74364021823135684208	8.71820109115678043565	8.71820109115678043565
	27	1	0.00000000000000106767	6.97456087292542559197	10.46184130938813794387
	28	1	1.74364021823135706413	8.71820109115678043565	12.20548152761949367573
	29	1	0.00000000000000128121	6.97456087292542559197	13.94912174585084940759
	30	1	1.74364021823135728617	8.71820109115678221201	15.69276196408220513945
	31	1	0.00000000000000064060	10.46184130938813794387	0.00000000000000000000
	32	1	1.74364021823135662004	12.20548152761949367573	1.74364021823135617595
	33	1	0.00000000000000085414	10.46184130938813794387	3.48728043646271235190
	34	1	1.74364021823135684208	12.20548152761949367573	5.23092065469406897193
	35	1	0.00000000000000106767	10.46184130938813794387	6.97456087292542470379
	36	1	1.74364021823135706413	12.20548152761949367573	8.71820109115678043565
	37	1	0.00000000000000128121	10.46184130938813794387	10.46184130938813794387
	38	1	1.74364021823135728617	12.20548152761949367573	12.20548152761949367573
	39	1	0.00000000000000149474	10.46184130938813794387	13.94912174585084940759
	40	1	1.74364021823135750822	12.20548152761949545209	15.69276196408220513945
	41	1	0.00000000000000085414	13.94912174585084940759	0.00000000000000000000
	42	1	1.74364021823135684208	15.69276196408220513945	1.74364021823135617595
	43	1	0.00000000000000106767	13.94912174585084940759	3.48728043646271235190
	44	1	1.74364021823135706413	15.69276196408220513945	5.23092065469406897193
	45	1	0.00000000000000128121	13.94912174585084940759	6.97456087292542470379
	46	1	1.74364021823135728617	15.69276196408220513945	8.71820109115678043565
	47	1	0.00000000000000149474	13.94912174585084940759	10.46184130938813794387
	48	1	1.74364021823135750822	15.69276196408220513945	12.20548152761949367573
	49	1	0.00000000000000170827	13.94912174585084940759	13.94912174585084940759
	50	1	1.74364021823135773026	15.69276196408220691580	15.69276196408220513945
	51	1	3.48728043646271190781	0.00000000000000000000	0.00000000000000000000
	52	1	5.23092065469406808376	1.74364021823135617595	1.74364021823135617595
	53	1	3.48728043646271190781	0.00000000000000021353	3.48728043646271235190
	54	1	5.23092065469406808376	1.74364021823135639799	5.23092065469406897193
	55	1	3.48728043646271235190	0.00000000000000042707	6.97456087292542470379
	56	1	5.23092065469406897193	1.74364021823135662004	8.71820109115678043565
	57	1	3.48728043646271235190	0.00000000000000064060	10.46184130938813794387
	58	1	5.23092065469406897193	1.74364021823135684208	12.20548152761949367573
	59	1	3.48728043646271279599	0.00000000000000085414	13.94912174585084940759
	60	1	5.23092065469406897193	1.74364021823135706413	15.69276196408220513945
	61	1	3.48728043646271190781	3.48728043646271235190	0.00000000000000000000
	62	1	5.23092065469406808376	5.23092065469406897193	1.74364021823135617595
	63	1	3.48728043646271190781	3.48728043646271235190	3.48728043646271235190
	64	1	5.23092065469406808376	5.23092065469406897193	5.23092065469406897193
	65	1	3.48728043646271235190	3.48728043646271279599	6.97456087292542470379
	66	1	5.23092065469406897193	5.23092065469406986011	8.71820109115678043565
	67	1	3.48728043646271235190	3.48728043646271279599	10.46184130938813794387
	68	1	5.23092065469406897193	5.23092065469406986011	12.20548152761949367573
	69	1	3.48728043646271279599	3.48728043646271324008	13.94912174585084940759
	70	1	5.23092065469406897193	5.23092065469406986011	15.69276196408220513945
	71	1	3.48728043646271235190	6.97456087292542470379	0.00000000000000000000
	72	1	5.23092065469406897193	8.71820109115678043565	1.74364021823135617595
	73	1	3.48728043646271235190	6.97456087292542470379	3.48728043646271235190
	74	1	5.23092065469406897193	8.71820109115678043565	5.23092065469406897193
	75	1	3.48728043646271279599	6.97456087292542470379	6.97456087292542470379
	76	1	5.23092065469406986011	8.71820109115678043565	8.71820109115678043565
	77	1	3.48728043646271279599	6.97456087292542559197	10.46184130938813794387
	78	1	5.23092065469406986011	8.71820109115678043565	12.20548152761949367573
	79	1	3.48728043646271324008	6.97456087292542559197	13.94912174585084940759
	80	1	5.23092065469406986011	8.71820109115678221201	15.69276196408220513945
	81	1	3.48728043646271235190	10.46184130938813794387	0.00000000000000000000
	82	1	5.23092065469406897193	12.20548152761949367573	1.74364021823135617595
	83	1	3.48728043646271235190	10.46184130938813794387	3.48728043646271235190
	84	1	5.23092065469406897193	12.20548152761949367573	5.23092065469406897193
	85	1	3.48728043646271279599	10.46184130938813794387	6.97456087292542470379
	86	1	5.23092065469406986011	12.20548152761949367573	8.71820109115678043565
	87	1	3.48728043646271279599	10.46184130938813794387	10.46184130938813794387
	88	1	5.23092065469406986011	12.20548152761949367573	12.20548152761949367573
	89	1	3.48728043646271324008	10.46184130938813794387	13.94912174585084940759
	90	1	5.23092065469406986011	12.20548152761949545209	15.69276196408220513945
	91	1	3.48728043646271279599	13.94912174585084940759	0.00000000000000000000
	92	1	5.23092065469406897193	15.69276196408220513945	1.74364021823135617595
	93	1	3.48728043646271279599	13.94912174585084940759	3.48728043646271235190
	94	1	5.23092065469406897193	15.69276196408220513945	5.23092065469406897193
	95	1	3.48728043646271324008	13.94912174585084940759	6.97456087292542470379
	96	1	5.23092065469406986011	15.69276196408220513945	8.71820109115678043565
	97	1	3.48728043646271324008	13.94912174585084940759	10.46184130938813794387
	98	1	5.23092065469406986011	15.69276196408220513945	12.20548152761949367573
	99	1	3.48728043646271368416	13.94912174585084940759	13.94912174585084940759
	100	1	5.23092065469406986011	15.69276196408220691580	15.69276196408220513945
	101	1	6.97456087292542381562	0.00000000000000000000	0.00000000000000000000
	102	1	8.71820109115677865930	1.74364021823135617595	1.74364021823135617595
	103	1	6.97456087292542381562	0.00000000000000021353	3.48728043646271235190
	104	1	8.71820109115677865930	1.74364021823135639799	5.23092065469406897193
	105	1	6.97456087292542381562	0.00000000000000042707	6.97456087292542470379
	106	1	8.71820109115677865930	1.74364021823135662004	8.71820109115678043565
	107	1	6.97456087292542470379	0.00000000000000064060	10.46184130938813794387
	108	1	8.71820109115677865930	1.74364021823135684208	12.20548152761949367573
	109	1	6.97456087292542470379	0.00000000000000085414	13.94912174585084940759
	110	1	8.71820109115678043565	1.74364021823135706413	15.69276196408220513945
	111	1	6.97456087292542381562	3.48728043646271235190	0.00000000000000000000
	112	1	8.71820109115677865930	5.23092065469406897193	1.74364021823135617595
	113	1	6.97456087292542381562	3.48728043646271235190	3.48728043646271235190
	114	1	8.71820109115677865930	5.23092065469406897193	5.23092065469406897193
	115	1	6.97456087292542381562	3.48728043646271279599	6.97456087292542470379
	116	1	8.71820109115677865930	5.23092065469406986011	8.71820109115678043565
	117	1	6.97456087292542470379	3.48728043646271279599	10.46184130938813794387
	118	1	8.71820109115677865930	5.23092065469406986011	12.20548152761949367573
	119	1	6.97456087292542470379	3.48728043646271324008	13.94912174585084940759
	120	1	8.71820109115678043565	5.23092065469406986011	15.69276196408220513945
	121	1	6.97456087292542381562	6.97456087292542470379	0.00000000000000000000
	122	1	8.71820109115677865930	8.71820109115678043565	1.74364021823135617595
	123	1	6.97456087292542381562	6.97456087292542470379	3.48728043646271235190
	124	1	8.71820109115677865930	8.71820109115678043565	5.23092065469406897193
	125	1	6.97456087292542381562	6.97456087292542470379	6.97456087292542470379
	126	1	8.71820109115677865930	8.71820109115678043565	8.71820109115678043565
	127	1	6.97456087292542470379	6.97456087292542559197	10.46184130938813794387
	128	1	8.71820109115677865930	8.71820109115678043565	12.20548152761949367573
	129	1	6.97456087292542470379	6.97456087292542559197	13.94912174585084940759
	130	1	8.71820109115678043565	8.71820109115678221201	15.69276196408220513945
	131	1	6.97456087292542470379	10.46184130938813794387	0.00000000000000000000
	132	1	8.71820109115677865930	12.20548152761949367573	1.74364021823135617595
	133	1	6.97456087292542470379	10.46184130938813794387	3.48728043646271235190
	134	1	8.71820109115677865930	12.20548152761949367573	5.23092065469406897193
	135	1	6.97456087292542470379	10.46184130938813794387	6.97456087292542470379
	136	1	8.71820109115677865930	12.20548152761949367573	8.71820109115678043565
	137	1	6.97456087292542559197	10.46184130938813794387	10.46184130938813794387
	138	1	8.71820109115677865930	12.20548152761949367573	12.20548152761949367573
	139	1	6.97456087292542559197	10.46184130938813794387	13.94912174585084940759
	140	1	8.71820109115678043565	12.20548152761949545209	15.69276196408220513945
	141	1	6.97456087292542470379	13.94912174585084940759	0.00000000000000000000
	142	1	8.71820109115678043565	15.69276196408220513945	1.74364021823135617595
	143	1	6.97456087292542470379	13.94912174585084940759	3.48728043646271235190
	144	1	8.71820109115678043565	15.69276196408220513945	5.23092065469406897193
	145	1	6.97456087292542470379	13.94912174585084940759	6.97456087292542470379
	146	1	8.71820109115678043565	15.69276196408220513945	8.71820109115678043565
	147	1	6.97456087292542559197	13.94912174585084940759	10.46184130938813794387
	148	1	8.71820109115678043565	15.69276196408220513945	12.20548152761949367573
	149	1	6.97456087292542559197	13.94912174585084940759	13.94912174585084940759
	150	1	8.71820109115678221201	15.69276196408220691580	15.69276196408220513945
	151	1	10.46184130938813616751	0.00000000000000000000	0.00000000000000000000
	152	1	12.20548152761949189937	1.74364021823135617595	1.74364021823135617595
	153	1	10.46184130938813616751	0.00000000000000021353	3.48728043646271235190
	154	1	12.20548152761949189937	1.74364021823135639799	5.23092065469406897193
	155	1	10.46184130938813616751	0.00000000000000042707	6.97456087292542470379
	156	1	12.20548152761949189937	1.74364021823135662004	8.71820109115678043565
	157	1	10.46184130938813616751	0.00000000000000064060	10.46184130938813794387
	158	1	12.20548152761949189937	1.74364021823135684208	12.20548152761949367573
	159	1	10.46184130938813616751	0.00000000000000085414	13.94912174585084940759
	160	1	12.20548152761949367573	1.74364021823135706413	15.69276196408220513945
	161	1	10.46184130938813616751	3.48728043646271235190	0.00000000000000000000
	162	1	12.20548152761949189937	5.23092065469406897193	1.74364021823135617595
	163	1	10.46184130938813616751	3.48728043646271235190	3.48728043646271235190
	164	1	12.20548152761949189937	5.23092065469406897193	5.23092065469406897193
	165	1	10.46184130938813616751	3.48728043646271279599	6.97456087292542470379
	166	1	12.20548152761949189937	5.23092065469406986011	8.71820109115678043565
	167	1	10.46184130938813616751	3.48728043646271279599	10.46184130938813794387
	168	1	12.20548152761949189937	5.23092065469406986011	12.20548152761949367573
	169	1	10.46184130938813616751	3.48728043646271324008	13.94912174585084940759
	170	1	12.20548152761949367573	5.23092065469406986011	15.69276196408220513945
	171	1	10.46184130938813616751	6.97456087292542470379	0.00000000000000000000
	172	1	12.20548152761949189937	8.71820109115678043565	1.74364021823135617595
	173	1	10.46184130938813616751	6.97456087292542470379	3.48728043646271235190
	174	1	12.20548152761949189937	8.71820109115678043565	5.23092065469406897193
	175	1	10.46184130938813616751	6.97456087292542470379	6.97456087292542470379
	176	1	12.20548152761949189937	8.71820109115678043565	8.71820109115678043565
	177	1	10.46184130938813616751	6.97456087292542559197	10.46184130938813794387
	178	1	12.20548152761949189937	8.71820109115678043565	12.20548152761949367573
	179	1	10.46184130938813616751	6.97456087292542559197	13.94912174585084940759
	180	1	12.20548152761949367573	8.71820109115678221201	15.69276196408220513945
	181	1	10.46184130938813616751	10.46184130938813794387	0.00000000000000000000
	182	1	12.20548152761949189937	12.20548152761949367573	1.74364021823135617595
	183	1	10.46184130938813616751	10.46184130938813794387	3.48728043646271235190
	184	1	12.20548152761949189937	12.20548152761949367573	5.23092065469406897193
	185	1	10.46184130938813616751	10.46184130938813794387	6.97456087292542470379
	186	1	12.20548152761949189937	12.20548152761949367573	8.71820109115678043565
	187	1	10.46184130938813616751	10.46184130938813794387	10.46184130938813794387
	188	1	12.20548152761949189937	12.20548152761949367573	12.20548152761949367573
	189	1	10.46184130938813616751	10.46184130938813794387	13.94912174585084940759
	190	1	12.20548152761949367573	12.20548152761949545209	15.69276196408220513945
	191	1	10.46184130938813616751	13.94912174585084940759	0.00000000000000000000
	192	1	12.20548152761949367573	15.69276196408220513945	1.74364021823135617595
	193	1	10.46184130938813616751	13.94912174585084940759	3.48728043646271235190
	194	1	12.20548152761949367573	15.69276196408220513945	5.23092065469406897193
	195	1	10.46184130938813616751	13.94912174585084940759	6.97456087292542470379
	196	1	12.20548152761949367573	15.69276196408220513945	8.71820109115678043565
	197	1	10.46184130938813616751	13.94912174585084940759	10.46184130938813794387
	198	1	12.20548152761949367573	15.69276196408220513945	12.20548152761949367573
	199	1	10.46184130938813616751	13.94912174585084940759	13.94912174585084940759
	200	1	12.20548152761949545209	15.69276196408220691580	15.69276196408220513945
	201	1	13.94912174585084763123	0.00000000000000000000	0.00000000000000000000
	202	1	15.69276196408220336309	1.74364021823135617595	1.74364021823135617595
	203	1	13.94912174585084763123	0.00000000000000021353	3.48728043646271235190
	204	1	15.69276196408220336309	1.74364021823135639799	5.23092065469406897193
	205	1	13.94912174585084763123	0.00000000000000042707	6.97456087292542470379
	206	1	15.69276196408220336309	1.74364021823135662004	8.71820109115678043565
	207	1	13.94912174585084763123	0.00000000000000064060	10.46184130938813794387
	208	1	15.69276196408220336309	1.74364021823135684208	12.20548152761949367573
	209	1	13.94912174585084763123	0.00000000000000085414	13.94912174585084940759
	210	1	15.69276196408220513945	1.74364021823135706413	15.69276196408220513945
	211	1	13.94912174585084763123	3.48728043646271235190	0.00000000000000000000
	212	1	15.69276196408220336309	5.23092065469406897193	1.74364021823135617595
	213	1	13.94912174585084763123	3.48728043646271235190	3.48728043646271235190
	214	1	15.69276196408220336309	5.23092065469406897193	5.23092065469406897193
	215	1	13.94912174585084763123	3.48728043646271279599	6.97456087292542470379
	216	1	15.69276196408220336309	5.23092065469406986011	8.71820109115678043565
	217	1	13.94912174585084763123	3.48728043646271279599	10.46184130938813794387
	218	1	15.69276196408220336309	5.23092065469406986011	12.20548152761949367573
	219	1	13.94912174585084763123	3.48728043646271324008	13.94912174585084940759
	220	1	15.69276196408220513945	5.23092065469406986011	15.69276196408220513945
	221	1	13.94912174585084763123	6.97456087292542470379	0.00000000000000000000
	222	1	15.69276196408220336309	8.71820109115678043565	1.74364021823135617595
	223	1	13.94912174585084763123	6.97456087292542470379	3.48728043646271235190
	224	1	15.69276196408220336309	8.71820109115678043565	5.23092065469406897193
	225	1	13.94912174585084763123	6.97456087292542470379	6.97456087292542470379
	226	1	15.69276196408220336309	8.71820109115678043565	8.71820109115678043565
	227	1	13.94912174585084763123	6.97456087292542559197	10.46184130938813794387
	228	1	15.69276196408220336309	8.71820109115678043565	12.20548152761949367573
	229	1	13.94912174585084763123	6.97456087292542559197	13.94912174585084940759
	230	1	15.69276196408220513945	8.71820109115678221201	15.69276196408220513945
	231	1	13.94912174585084763123	10.46184130938813794387	0.00000000000000000000
	232	1	15.69276196408220336309	12.20548152761949367573	1.74364021823135617595
	233	1	13.94912174585084763123	10.46184130938813794387	3.48728043646271235190
	234	1	15.69276196408220336309	12.20548152761949367573	5.23092065469406897193
	235	1	13.94912174585084763123	10.46184130938813794387	6.97456087292542470379
	236	1	15.69276196408220336309	12.20548152761949367573	8.71820109115678043565
	237	1	13.94912174585084763123	10.46184130938813794387	10.46184130938813794387
	238	1	15.69276196408220336309	12.20548152761949367573	12.20548152761949367573
	239	1	13.94912174585084763123	10.46184130938813794387	13.94912174585084940759
	240	1	15.69276196408220513945	12.20548152761949545209	15.69276196408220513945
	241	1	13.94912174585084763123	13.94912174585084940759	0.00000000000000000000
	242	1	15.69276196408220513945	15.69276196408220513945	1.74364021823135617595
	243	1	13.94912174585084763123	13.94912174585084940759	3.48728043646271235190
	244	1	15.69276196408220513945	15.69276196408220513945	5.23092065469406897193
	245	1	13.94912174585084763123	13.94912174585084940759	6.97456087292542470379
	246	1	15.69276196408220513945	15.69276196408220513945	8.71820109115678043565
	247	1	13.94912174585084763123	13.94912174585084940759	10.46184130938813794387
	248	1	15.69276196408220513945	15.69276196408220513945	12.20548152761949367573
	249	1	13.94912174585084763123	13.94912174585084940759	13.94912174585084940759
	250	1	15.69276196408220691580	15.69276196408220691580	15.69276196408220513945
