 
 192 atoms 
 
 1 atom types
 0.00000000000000000000 68.33646127459086017097 xlo xhi
 0.00000000000000000000 9.86351857808786824933 ylo yhi
 0.00000000000000000000 6.04014689619438716051 zlo zhi
 
 Atoms 
 
	1	1	0.00000000000000000000	0.00000000000000000000	0.00000000000000000000
	2	1	4.27102882966192876069	2.46587964452196706233	0.00000000000000000000
	3	1	2.84735255310795265515	0.00000000000000000000	1.00669114936573111940
	4	1	7.11838138276988185993	2.46587964452196706233	1.00669114936573111940
	5	1	1.42367627655397632758	2.46587964452196706233	2.01338229873146223881
	6	1	5.69470510621590531031	0.00000000000000000000	2.01338229873146223881
	7	1	0.00000000000000000000	0.00000000000000000000	3.02007344809719358025
	8	1	4.27102882966192876069	2.46587964452196706233	3.02007344809719358025
	9	1	2.84735255310795265515	0.00000000000000000000	4.02676459746292447761
	10	1	7.11838138276988185993	2.46587964452196706233	4.02676459746292447761
	11	1	1.42367627655397632758	2.46587964452196706233	5.03345574682865581906
	12	1	5.69470510621590531031	0.00000000000000000000	5.03345574682865581906
	13	1	0.00000000000000000000	4.93175928904393412466	0.00000000000000000000
	14	1	4.27102882966192876069	7.39763893356590074291	0.00000000000000000000
	15	1	2.84735255310795265515	4.93175928904393412466	1.00669114936573111940
	16	1	7.11838138276988185993	7.39763893356590074291	1.00669114936573111940
	17	1	1.42367627655397632758	7.39763893356590074291	2.01338229873146223881
	18	1	5.69470510621590531031	4.93175928904393412466	2.01338229873146223881
	19	1	0.00000000000000000000	4.93175928904393412466	3.02007344809719358025
	20	1	4.27102882966192876069	7.39763893356590074291	3.02007344809719358025
	21	1	2.84735255310795265515	4.93175928904393412466	4.02676459746292447761
	22	1	7.11838138276988185993	7.39763893356590074291	4.02676459746292447761
	23	1	1.42367627655397632758	7.39763893356590074291	5.03345574682865581906
	24	1	5.69470510621590531031	4.93175928904393412466	5.03345574682865581906
	25	1	8.54205765932385752137	0.00000000000000000000	0.00000000000000000000
	26	1	12.81308648898578539388	2.46587964452196706233	0.00000000000000000000
	27	1	11.38941021243181062061	0.00000000000000000000	1.00669114936573111940
	28	1	15.66043904209373849312	2.46587964452196706233	1.00669114936573111940
	29	1	9.96573393587783407099	2.46587964452196706233	2.01338229873146223881
	30	1	14.23676276553976194350	0.00000000000000000000	2.01338229873146223881
	31	1	8.54205765932385752137	0.00000000000000000000	3.02007344809719358025
	32	1	12.81308648898578539388	2.46587964452196706233	3.02007344809719358025
	33	1	11.38941021243181062061	0.00000000000000000000	4.02676459746292447761
	34	1	15.66043904209373849312	2.46587964452196706233	4.02676459746292447761
	35	1	9.96573393587783407099	2.46587964452196706233	5.03345574682865581906
	36	1	14.23676276553976194350	0.00000000000000000000	5.03345574682865581906
	37	1	8.54205765932385752137	4.93175928904393412466	0.00000000000000000000
	38	1	12.81308648898578539388	7.39763893356590074291	0.00000000000000000000
	39	1	11.38941021243181062061	4.93175928904393412466	1.00669114936573111940
	40	1	15.66043904209373849312	7.39763893356590074291	1.00669114936573111940
	41	1	9.96573393587783407099	7.39763893356590074291	2.01338229873146223881
	42	1	14.23676276553976194350	4.93175928904393412466	2.01338229873146223881
	43	1	8.54205765932385752137	4.93175928904393412466	3.02007344809719358025
	44	1	12.81308648898578539388	7.39763893356590074291	3.02007344809719358025
	45	1	11.38941021243181062061	4.93175928904393412466	4.02676459746292447761
	46	1	15.66043904209373849312	7.39763893356590074291	4.02676459746292447761
	47	1	9.96573393587783407099	7.39763893356590074291	5.03345574682865581906
	48	1	14.23676276553976194350	4.93175928904393412466	5.03345574682865581906
	49	1	17.08411531864771504274	0.00000000000000000000	0.00000000000000000000
	50	1	21.35514414830964469161	2.46587964452196706233	0.00000000000000000000
	51	1	19.93146787175566814199	0.00000000000000000000	1.00669114936573111940
	52	1	24.20249670141759779085	2.46587964452196706233	1.00669114936573111940
	53	1	18.50779159520169159237	2.46587964452196706233	2.01338229873146223881
	54	1	22.77882042486362124123	0.00000000000000000000	2.01338229873146223881
	55	1	17.08411531864771504274	0.00000000000000000000	3.02007344809719358025
	56	1	21.35514414830964469161	2.46587964452196706233	3.02007344809719358025
	57	1	19.93146787175566814199	0.00000000000000000000	4.02676459746292447761
	58	1	24.20249670141759779085	2.46587964452196706233	4.02676459746292447761
	59	1	18.50779159520169159237	2.46587964452196706233	5.03345574682865581906
	60	1	22.77882042486362124123	0.00000000000000000000	5.03345574682865581906
	61	1	17.08411531864771504274	4.93175928904393412466	0.00000000000000000000
	62	1	21.35514414830964469161	7.39763893356590074291	0.00000000000000000000
	63	1	19.93146787175566814199	4.93175928904393412466	1.00669114936573111940
	64	1	24.20249670141759779085	7.39763893356590074291	1.00669114936573111940
	65	1	18.50779159520169159237	7.39763893356590074291	2.01338229873146223881
	66	1	22.77882042486362124123	4.93175928904393412466	2.01338229873146223881
	67	1	17.08411531864771504274	4.93175928904393412466	3.02007344809719358025
	68	1	21.35514414830964469161	7.39763893356590074291	3.02007344809719358025
	69	1	19.93146787175566814199	4.93175928904393412466	4.02676459746292447761
	70	1	24.20249670141759779085	7.39763893356590074291	4.02676459746292447761
	71	1	18.50779159520169159237	7.39763893356590074291	5.03345574682865581906
	72	1	22.77882042486362124123	4.93175928904393412466	5.03345574682865581906
	73	1	25.62617297797157078776	0.00000000000000000000	0.00000000000000000000
	74	1	29.89720180763350043662	2.46587964452196706233	0.00000000000000000000
	75	1	28.47352553107952388700	0.00000000000000000000	1.00669114936573111940
	76	1	32.74455436074145353587	2.46587964452196706233	1.00669114936573111940
	77	1	27.04984925452554733738	2.46587964452196706233	2.01338229873146223881
	78	1	31.32087808418747698624	0.00000000000000000000	2.01338229873146223881
	79	1	25.62617297797157078776	0.00000000000000000000	3.02007344809719358025
	80	1	29.89720180763350043662	2.46587964452196706233	3.02007344809719358025
	81	1	28.47352553107952388700	0.00000000000000000000	4.02676459746292447761
	82	1	32.74455436074145353587	2.46587964452196706233	4.02676459746292447761
	83	1	27.04984925452554733738	2.46587964452196706233	5.03345574682865581906
	84	1	31.32087808418747698624	0.00000000000000000000	5.03345574682865581906
	85	1	25.62617297797157078776	4.93175928904393412466	0.00000000000000000000
	86	1	29.89720180763350043662	7.39763893356590074291	0.00000000000000000000
	87	1	28.47352553107952388700	4.93175928904393412466	1.00669114936573111940
	88	1	32.74455436074145353587	7.39763893356590074291	1.00669114936573111940
	89	1	27.04984925452554733738	7.39763893356590074291	2.01338229873146223881
	90	1	31.32087808418747698624	4.93175928904393412466	2.01338229873146223881
	91	1	25.62617297797157078776	4.93175928904393412466	3.02007344809719358025
	92	1	29.89720180763350043662	7.39763893356590074291	3.02007344809719358025
	93	1	28.47352553107952388700	4.93175928904393412466	4.02676459746292447761
	94	1	32.74455436074145353587	7.39763893356590074291	4.02676459746292447761
	95	1	27.04984925452554733738	7.39763893356590074291	5.03345574682865581906
	96	1	31.32087808418747698624	4.93175928904393412466	5.03345574682865581906
	97	1	34.16823063729543008549	0.00000000000000000000	0.00000000000000000000
	98	1	38.43925946695735973435	2.46587964452196706233	0.00000000000000000000
	99	1	37.01558319040338318473	0.00000000000000000000	1.00669114936573111940
	100	1	41.28661202006531283359	2.46587964452196706233	1.00669114936573111940
	101	1	35.59190691384940663511	2.46587964452196706233	2.01338229873146223881
	102	1	39.86293574351133628397	0.00000000000000000000	2.01338229873146223881
	103	1	34.16823063729543008549	0.00000000000000000000	3.02007344809719358025
	104	1	38.43925946695735973435	2.46587964452196706233	3.02007344809719358025
	105	1	37.01558319040338318473	0.00000000000000000000	4.02676459746292447761
	106	1	41.28661202006531283359	2.46587964452196706233	4.02676459746292447761
	107	1	35.59190691384940663511	2.46587964452196706233	5.03345574682865581906
	108	1	39.86293574351133628397	0.00000000000000000000	5.03345574682865581906
	109	1	34.16823063729543008549	4.93175928904393412466	0.00000000000000000000
	110	1	38.43925946695735973435	7.39763893356590074291	0.00000000000000000000
	111	1	37.01558319040338318473	4.93175928904393412466	1.00669114936573111940
	112	1	41.28661202006531283359	7.39763893356590074291	1.00669114936573111940
	113	1	35.59190691384940663511	7.39763893356590074291	2.01338229873146223881
	114	1	39.86293574351133628397	4.93175928904393412466	2.01338229873146223881
	115	1	34.16823063729543008549	4.93175928904393412466	3.02007344809719358025
	116	1	38.43925946695735973435	7.39763893356590074291	3.02007344809719358025
	117	1	37.01558319040338318473	4.93175928904393412466	4.02676459746292447761
	118	1	41.28661202006531283359	7.39763893356590074291	4.02676459746292447761
	119	1	35.59190691384940663511	7.39763893356590074291	5.03345574682865581906
	120	1	39.86293574351133628397	4.93175928904393412466	5.03345574682865581906
	121	1	42.71028829661928938322	0.00000000000000000000	0.00000000000000000000
	122	1	46.98131712628121903208	2.46587964452196706233	0.00000000000000000000
	123	1	45.55764084972724248246	0.00000000000000000000	1.00669114936573111940
	124	1	49.82866967938917213132	2.46587964452196706233	1.00669114936573111940
	125	1	44.13396457317326593284	2.46587964452196706233	2.01338229873146223881
	126	1	48.40499340283519558170	0.00000000000000000000	2.01338229873146223881
	127	1	42.71028829661928938322	0.00000000000000000000	3.02007344809719358025
	128	1	46.98131712628121903208	2.46587964452196706233	3.02007344809719358025
	129	1	45.55764084972724248246	0.00000000000000000000	4.02676459746292447761
	130	1	49.82866967938917213132	2.46587964452196706233	4.02676459746292447761
	131	1	44.13396457317326593284	2.46587964452196706233	5.03345574682865581906
	132	1	48.40499340283519558170	0.00000000000000000000	5.03345574682865581906
	133	1	42.71028829661928938322	4.93175928904393412466	0.00000000000000000000
	134	1	46.98131712628121903208	7.39763893356590074291	0.00000000000000000000
	135	1	45.55764084972724248246	4.93175928904393412466	1.00669114936573111940
	136	1	49.82866967938917213132	7.39763893356590074291	1.00669114936573111940
	137	1	44.13396457317326593284	7.39763893356590074291	2.01338229873146223881
	138	1	48.40499340283519558170	4.93175928904393412466	2.01338229873146223881
	139	1	42.71028829661928938322	4.93175928904393412466	3.02007344809719358025
	140	1	46.98131712628121903208	7.39763893356590074291	3.02007344809719358025
	141	1	45.55764084972724248246	4.93175928904393412466	4.02676459746292447761
	142	1	49.82866967938917213132	7.39763893356590074291	4.02676459746292447761
	143	1	44.13396457317326593284	7.39763893356590074291	5.03345574682865581906
	144	1	48.40499340283519558170	4.93175928904393412466	5.03345574682865581906
	145	1	51.25234595594314157552	0.00000000000000000000	0.00000000000000000000
	146	1	55.52337478560507122438	2.46587964452196706233	0.00000000000000000000
	147	1	54.09969850905109467476	0.00000000000000000000	1.00669114936573111940
	148	1	58.37072733871302432362	2.46587964452196706233	1.00669114936573111940
	149	1	52.67602223249711812514	2.46587964452196706233	2.01338229873146223881
	150	1	56.94705106215904777400	0.00000000000000000000	2.01338229873146223881
	151	1	51.25234595594314157552	0.00000000000000000000	3.02007344809719358025
	152	1	55.52337478560507122438	2.46587964452196706233	3.02007344809719358025
	153	1	54.09969850905109467476	0.00000000000000000000	4.02676459746292447761
	154	1	58.37072733871302432362	2.46587964452196706233	4.02676459746292447761
	155	1	52.67602223249711812514	2.46587964452196706233	5.03345574682865581906
	156	1	56.94705106215904777400	0.00000000000000000000	5.03345574682865581906
	157	1	51.25234595594314157552	4.93175928904393412466	0.00000000000000000000
	158	1	55.52337478560507122438	7.39763893356590074291	0.00000000000000000000
	159	1	54.09969850905109467476	4.93175928904393412466	1.00669114936573111940
	160	1	58.37072733871302432362	7.39763893356590074291	1.00669114936573111940
	161	1	52.67602223249711812514	7.39763893356590074291	2.01338229873146223881
	162	1	56.94705106215904777400	4.93175928904393412466	2.01338229873146223881
	163	1	51.25234595594314157552	4.93175928904393412466	3.02007344809719358025
	164	1	55.52337478560507122438	7.39763893356590074291	3.02007344809719358025
	165	1	54.09969850905109467476	4.93175928904393412466	4.02676459746292447761
	166	1	58.37072733871302432362	7.39763893356590074291	4.02676459746292447761
	167	1	52.67602223249711812514	7.39763893356590074291	5.03345574682865581906
	168	1	56.94705106215904777400	4.93175928904393412466	5.03345574682865581906
	169	1	59.79440361526700087325	0.00000000000000000000	0.00000000000000000000
	170	1	64.06543244492893052211	2.46587964452196706233	0.00000000000000000000
	171	1	62.64175616837495397249	0.00000000000000000000	1.00669114936573111940
	172	1	66.91278499803688362135	2.46587964452196706233	1.00669114936573111940
	173	1	61.21807989182097742287	2.46587964452196706233	2.01338229873146223881
	174	1	65.48910872148290707173	0.00000000000000000000	2.01338229873146223881
	175	1	59.79440361526700087325	0.00000000000000000000	3.02007344809719358025
	176	1	64.06543244492893052211	2.46587964452196706233	3.02007344809719358025
	177	1	62.64175616837495397249	0.00000000000000000000	4.02676459746292447761
	178	1	66.91278499803688362135	2.46587964452196706233	4.02676459746292447761
	179	1	61.21807989182097742287	2.46587964452196706233	5.03345574682865581906
	180	1	65.48910872148290707173	0.00000000000000000000	5.03345574682865581906
	181	1	59.79440361526700087325	4.93175928904393412466	0.00000000000000000000
	182	1	64.06543244492893052211	7.39763893356590074291	0.00000000000000000000
	183	1	62.64175616837495397249	4.93175928904393412466	1.00669114936573111940
	184	1	66.91278499803688362135	7.39763893356590074291	1.00669114936573111940
	185	1	61.21807989182097742287	7.39763893356590074291	2.01338229873146223881
	186	1	65.48910872148290707173	4.93175928904393412466	2.01338229873146223881
	187	1	59.79440361526700087325	4.93175928904393412466	3.02007344809719358025
	188	1	64.06543244492893052211	7.39763893356590074291	3.02007344809719358025
	189	1	62.64175616837495397249	4.93175928904393412466	4.02676459746292447761
	190	1	66.91278499803688362135	7.39763893356590074291	4.02676459746292447761
	191	1	61.21807989182097742287	7.39763893356590074291	5.03345574682865581906
	192	1	65.48910872148290707173	4.93175928904393412466	5.03345574682865581906
