ITEM: TIMESTEP
0
ITEM: NUMBER OF ATOMS
192
ITEM: BOX BOUNDS ss pp pp
-0.00683365 66.9196
0 9.86352
0 6.04015
ITEM: ATOMS id type x y z 
1 1 0 0 0 
3 1 2.84735 0 1.00669 
5 1 1.42368 2.46588 2.01338 
7 1 0 0 3.02007 
9 1 2.84735 0 4.02676 
11 1 1.42368 2.46588 5.03346 
2 1 4.27103 2.46588 0 
6 1 5.69471 0 2.01338 
8 1 4.27103 2.46588 3.02007 
12 1 5.69471 0 5.03346 
4 1 7.11838 2.46588 1.00669 
10 1 7.11838 2.46588 4.02676 
25 1 8.54206 0 0 
29 1 9.96573 2.46588 2.01338 
31 1 8.54206 0 3.02007 
35 1 9.96573 2.46588 5.03346 
26 1 12.8131 2.46588 0 
27 1 11.3894 0 1.00669 
32 1 12.8131 2.46588 3.02007 
33 1 11.3894 0 4.02676 
28 1 15.6604 2.46588 1.00669 
30 1 14.2368 0 2.01338 
34 1 15.6604 2.46588 4.02676 
36 1 14.2368 0 5.03346 
49 1 17.0841 0 0 
55 1 17.0841 0 3.02007 
51 1 19.9315 0 1.00669 
53 1 18.5078 2.46588 2.01338 
57 1 19.9315 0 4.02676 
59 1 18.5078 2.46588 5.03346 
50 1 21.3551 2.46588 0 
52 1 24.2025 2.46588 1.00669 
54 1 22.7788 0 2.01338 
56 1 21.3551 2.46588 3.02007 
58 1 24.2025 2.46588 4.02676 
60 1 22.7788 0 5.03346 
73 1 25.6262 0 0 
77 1 27.0498 2.46588 2.01338 
79 1 25.6262 0 3.02007 
83 1 27.0498 2.46588 5.03346 
74 1 29.8972 2.46588 0 
75 1 28.4735 0 1.00669 
78 1 31.3209 0 2.01338 
80 1 29.8972 2.46588 3.02007 
81 1 28.4735 0 4.02676 
84 1 31.3209 0 5.03346 
76 1 32.7446 2.46588 1.00669 
82 1 32.7446 2.46588 4.02676 
97 1 34.1682 0 3.02007 
103 1 34.1682 0 6.04015 
98 1 38.4393 2.46588 3.02007 
99 1 37.0156 0 4.02676 
101 1 35.5919 2.46588 5.03346 
104 1 38.4393 2.46588 6.04015 
105 1 37.0156 0 1.00669 
107 1 35.5919 2.46588 2.01338 
100 1 41.2866 2.46588 4.02676 
102 1 39.8629 0 5.03346 
106 1 41.2866 2.46588 1.00669 
108 1 39.8629 0 2.01338 
121 1 42.7103 0 3.02007 
123 1 45.5576 0 4.02676 
125 1 44.134 2.46588 5.03346 
127 1 42.7103 0 6.04015 
129 1 45.5576 0 1.00669 
131 1 44.134 2.46588 2.01338 
122 1 46.9813 2.46588 3.02007 
126 1 48.405 0 5.03346 
128 1 46.9813 2.46588 6.04015 
132 1 48.405 0 2.01338 
124 1 49.8287 2.46588 4.02676 
130 1 49.8287 2.46588 1.00669 
145 1 51.2523 0 3.02007 
149 1 52.676 2.46588 5.03346 
151 1 51.2523 0 6.04015 
155 1 52.676 2.46588 2.01338 
146 1 55.5234 2.46588 3.02007 
147 1 54.0997 0 4.02676 
152 1 55.5234 2.46588 6.04015 
153 1 54.0997 0 1.00669 
148 1 58.3707 2.46588 4.02676 
150 1 56.9471 0 5.03346 
154 1 58.3707 2.46588 1.00669 
156 1 56.9471 0 2.01338 
169 1 59.7944 0 3.02007 
175 1 59.7944 0 6.04015 
171 1 62.6418 0 4.02676 
173 1 61.2181 2.46588 5.03346 
177 1 62.6418 0 1.00669 
179 1 61.2181 2.46588 2.01338 
170 1 64.0654 2.46588 3.02007 
172 1 66.9128 2.46588 4.02676 
174 1 65.4891 0 5.03346 
176 1 64.0654 2.46588 6.04015 
178 1 66.9128 2.46588 1.00669 
180 1 65.4891 0 2.01338 
13 1 0 4.93176 0 
15 1 2.84735 4.93176 1.00669 
17 1 1.42368 7.39764 2.01338 
19 1 0 4.93176 3.02007 
21 1 2.84735 4.93176 4.02676 
23 1 1.42368 7.39764 5.03346 
14 1 4.27103 7.39764 0 
18 1 5.69471 4.93176 2.01338 
20 1 4.27103 7.39764 3.02007 
24 1 5.69471 4.93176 5.03346 
16 1 7.11838 7.39764 1.00669 
22 1 7.11838 7.39764 4.02676 
37 1 8.54206 4.93176 0 
41 1 9.96573 7.39764 2.01338 
43 1 8.54206 4.93176 3.02007 
47 1 9.96573 7.39764 5.03346 
38 1 12.8131 7.39764 0 
39 1 11.3894 4.93176 1.00669 
44 1 12.8131 7.39764 3.02007 
45 1 11.3894 4.93176 4.02676 
40 1 15.6604 7.39764 1.00669 
42 1 14.2368 4.93176 2.01338 
46 1 15.6604 7.39764 4.02676 
48 1 14.2368 4.93176 5.03346 
61 1 17.0841 4.93176 0 
67 1 17.0841 4.93176 3.02007 
63 1 19.9315 4.93176 1.00669 
65 1 18.5078 7.39764 2.01338 
69 1 19.9315 4.93176 4.02676 
71 1 18.5078 7.39764 5.03346 
62 1 21.3551 7.39764 0 
64 1 24.2025 7.39764 1.00669 
66 1 22.7788 4.93176 2.01338 
68 1 21.3551 7.39764 3.02007 
70 1 24.2025 7.39764 4.02676 
72 1 22.7788 4.93176 5.03346 
85 1 25.6262 4.93176 0 
89 1 27.0498 7.39764 2.01338 
91 1 25.6262 4.93176 3.02007 
95 1 27.0498 7.39764 5.03346 
86 1 29.8972 7.39764 0 
87 1 28.4735 4.93176 1.00669 
90 1 31.3209 4.93176 2.01338 
92 1 29.8972 7.39764 3.02007 
93 1 28.4735 4.93176 4.02676 
96 1 31.3209 4.93176 5.03346 
88 1 32.7446 7.39764 1.00669 
94 1 32.7446 7.39764 4.02676 
109 1 34.1682 4.93176 3.02007 
115 1 34.1682 4.93176 6.04015 
110 1 38.4393 7.39764 3.02007 
111 1 37.0156 4.93176 4.02676 
113 1 35.5919 7.39764 5.03346 
116 1 38.4393 7.39764 6.04015 
117 1 37.0156 4.93176 1.00669 
119 1 35.5919 7.39764 2.01338 
112 1 41.2866 7.39764 4.02676 
114 1 39.8629 4.93176 5.03346 
118 1 41.2866 7.39764 1.00669 
120 1 39.8629 4.93176 2.01338 
133 1 42.7103 4.93176 3.02007 
135 1 45.5576 4.93176 4.02676 
137 1 44.134 7.39764 5.03346 
139 1 42.7103 4.93176 6.04015 
141 1 45.5576 4.93176 1.00669 
143 1 44.134 7.39764 2.01338 
134 1 46.9813 7.39764 3.02007 
138 1 48.405 4.93176 5.03346 
140 1 46.9813 7.39764 6.04015 
144 1 48.405 4.93176 2.01338 
136 1 49.8287 7.39764 4.02676 
142 1 49.8287 7.39764 1.00669 
157 1 51.2523 4.93176 3.02007 
161 1 52.676 7.39764 5.03346 
163 1 51.2523 4.93176 6.04015 
167 1 52.676 7.39764 2.01338 
158 1 55.5234 7.39764 3.02007 
159 1 54.0997 4.93176 4.02676 
164 1 55.5234 7.39764 6.04015 
165 1 54.0997 4.93176 1.00669 
160 1 58.3707 7.39764 4.02676 
162 1 56.9471 4.93176 5.03346 
166 1 58.3707 7.39764 1.00669 
168 1 56.9471 4.93176 2.01338 
181 1 59.7944 4.93176 3.02007 
187 1 59.7944 4.93176 6.04015 
183 1 62.6418 4.93176 4.02676 
185 1 61.2181 7.39764 5.03346 
189 1 62.6418 4.93176 1.00669 
191 1 61.2181 7.39764 2.01338 
182 1 64.0654 7.39764 3.02007 
184 1 66.9128 7.39764 4.02676 
186 1 65.4891 4.93176 5.03346 
188 1 64.0654 7.39764 6.04015 
190 1 66.9128 7.39764 1.00669 
192 1 65.4891 4.93176 2.01338 
ITEM: TIMESTEP
1
ITEM: NUMBER OF ATOMS
192
ITEM: BOX BOUNDS ss pp pp
-0.00683365 66.9196
0 9.86352
0 6.04015
ITEM: ATOMS id type x y z 
1 1 0 0 0 
3 1 2.84735 0 1.00669 
5 1 1.42368 2.46588 2.01338 
7 1 0 0 3.02007 
9 1 2.84735 0 4.02676 
11 1 1.42368 2.46588 5.03346 
2 1 4.27103 2.46588 0 
6 1 5.69471 0 2.01338 
8 1 4.27103 2.46588 3.02007 
12 1 5.69471 0 5.03346 
4 1 7.11838 2.46588 1.00669 
10 1 7.11838 2.46588 4.02676 
25 1 8.54206 0 0 
29 1 9.96573 2.46588 2.01338 
31 1 8.54206 0 3.02007 
35 1 9.96573 2.46588 5.03346 
26 1 12.8131 2.46588 0 
27 1 11.3894 0 1.00669 
32 1 12.8131 2.46588 3.02007 
33 1 11.3894 0 4.02676 
28 1 15.6604 2.46588 1.00669 
30 1 14.2368 0 2.01338 
34 1 15.6604 2.46588 4.02676 
36 1 14.2368 0 5.03346 
49 1 17.0841 0 0 
55 1 17.0841 0 3.02007 
51 1 19.9315 0 1.00669 
53 1 18.5078 2.46588 2.01338 
57 1 19.9315 0 4.02676 
59 1 18.5078 2.46588 5.03346 
50 1 21.3551 2.46588 0 
52 1 24.2025 2.46588 1.00669 
54 1 22.7788 0 2.01338 
56 1 21.3551 2.46588 3.02007 
58 1 24.2025 2.46588 4.02676 
60 1 22.7788 0 5.03346 
73 1 25.6262 0 0 
77 1 27.0498 2.46588 2.01338 
79 1 25.6262 0 3.02007 
83 1 27.0498 2.46588 5.03346 
74 1 29.8972 2.46588 0 
75 1 28.4735 0 1.00669 
78 1 31.3209 0 2.01338 
80 1 29.8972 2.46588 3.02007 
81 1 28.4735 0 4.02676 
84 1 31.3209 0 5.03346 
76 1 32.7446 2.46588 1.00669 
82 1 32.7446 2.46588 4.02676 
97 1 34.1682 0 3.02007 
103 1 34.1682 0 6.04015 
98 1 38.4393 2.46588 3.02007 
99 1 37.0156 0 4.02676 
101 1 35.5919 2.46588 5.03346 
104 1 38.4393 2.46588 6.04015 
105 1 37.0156 0 1.00669 
107 1 35.5919 2.46588 2.01338 
100 1 41.2866 2.46588 4.02676 
102 1 39.8629 0 5.03346 
106 1 41.2866 2.46588 1.00669 
108 1 39.8629 0 2.01338 
121 1 42.7103 0 3.02007 
123 1 45.5576 0 4.02676 
125 1 44.134 2.46588 5.03346 
127 1 42.7103 0 6.04015 
129 1 45.5576 0 1.00669 
131 1 44.134 2.46588 2.01338 
122 1 46.9813 2.46588 3.02007 
126 1 48.405 0 5.03346 
128 1 46.9813 2.46588 6.04015 
132 1 48.405 0 2.01338 
124 1 49.8287 2.46588 4.02676 
130 1 49.8287 2.46588 1.00669 
145 1 51.2523 0 3.02007 
149 1 52.676 2.46588 5.03346 
151 1 51.2523 0 6.04015 
155 1 52.676 2.46588 2.01338 
146 1 55.5234 2.46588 3.02007 
147 1 54.0997 0 4.02676 
152 1 55.5234 2.46588 6.04015 
153 1 54.0997 0 1.00669 
148 1 58.3707 2.46588 4.02676 
150 1 56.9471 0 5.03346 
154 1 58.3707 2.46588 1.00669 
156 1 56.9471 0 2.01338 
169 1 59.7944 0 3.02007 
175 1 59.7944 0 6.04015 
171 1 62.6463 0 4.02676 
173 1 61.2181 2.46588 5.03346 
177 1 62.6463 0 1.00669 
179 1 61.2181 2.46588 2.01338 
170 1 63.9654 2.46588 3.02007 
172 1 67.0025 2.46588 4.02676 
174 1 65.4949 0 5.03346 
176 1 63.9654 2.46588 6.04015 
178 1 67.0025 2.46588 1.00669 
180 1 65.4949 0 2.01338 
13 1 0 4.93176 0 
15 1 2.84735 4.93176 1.00669 
17 1 1.42368 7.39764 2.01338 
19 1 0 4.93176 3.02007 
21 1 2.84735 4.93176 4.02676 
23 1 1.42368 7.39764 5.03346 
14 1 4.27103 7.39764 0 
18 1 5.69471 4.93176 2.01338 
20 1 4.27103 7.39764 3.02007 
24 1 5.69471 4.93176 5.03346 
16 1 7.11838 7.39764 1.00669 
22 1 7.11838 7.39764 4.02676 
37 1 8.54206 4.93176 0 
41 1 9.96573 7.39764 2.01338 
43 1 8.54206 4.93176 3.02007 
47 1 9.96573 7.39764 5.03346 
38 1 12.8131 7.39764 0 
39 1 11.3894 4.93176 1.00669 
44 1 12.8131 7.39764 3.02007 
45 1 11.3894 4.93176 4.02676 
40 1 15.6604 7.39764 1.00669 
42 1 14.2368 4.93176 2.01338 
46 1 15.6604 7.39764 4.02676 
48 1 14.2368 4.93176 5.03346 
61 1 17.0841 4.93176 0 
67 1 17.0841 4.93176 3.02007 
63 1 19.9315 4.93176 1.00669 
65 1 18.5078 7.39764 2.01338 
69 1 19.9315 4.93176 4.02676 
71 1 18.5078 7.39764 5.03346 
62 1 21.3551 7.39764 0 
64 1 24.2025 7.39764 1.00669 
66 1 22.7788 4.93176 2.01338 
68 1 21.3551 7.39764 3.02007 
70 1 24.2025 7.39764 4.02676 
72 1 22.7788 4.93176 5.03346 
85 1 25.6262 4.93176 0 
89 1 27.0498 7.39764 2.01338 
91 1 25.6262 4.93176 3.02007 
95 1 27.0498 7.39764 5.03346 
86 1 29.8972 7.39764 0 
87 1 28.4735 4.93176 1.00669 
90 1 31.3209 4.93176 2.01338 
92 1 29.8972 7.39764 3.02007 
93 1 28.4735 4.93176 4.02676 
96 1 31.3209 4.93176 5.03346 
88 1 32.7446 7.39764 1.00669 
94 1 32.7446 7.39764 4.02676 
109 1 34.1682 4.93176 3.02007 
115 1 34.1682 4.93176 6.04015 
110 1 38.4393 7.39764 3.02007 
111 1 37.0156 4.93176 4.02676 
113 1 35.5919 7.39764 5.03346 
116 1 38.4393 7.39764 6.04015 
117 1 37.0156 4.93176 1.00669 
119 1 35.5919 7.39764 2.01338 
112 1 41.2866 7.39764 4.02676 
114 1 39.8629 4.93176 5.03346 
118 1 41.2866 7.39764 1.00669 
120 1 39.8629 4.93176 2.01338 
133 1 42.7103 4.93176 3.02007 
135 1 45.5576 4.93176 4.02676 
137 1 44.134 7.39764 5.03346 
139 1 42.7103 4.93176 6.04015 
141 1 45.5576 4.93176 1.00669 
143 1 44.134 7.39764 2.01338 
134 1 46.9813 7.39764 3.02007 
138 1 48.405 4.93176 5.03346 
140 1 46.9813 7.39764 6.04015 
144 1 48.405 4.93176 2.01338 
136 1 49.8287 7.39764 4.02676 
142 1 49.8287 7.39764 1.00669 
157 1 51.2523 4.93176 3.02007 
161 1 52.676 7.39764 5.03346 
163 1 51.2523 4.93176 6.04015 
167 1 52.676 7.39764 2.01338 
158 1 55.5234 7.39764 3.02007 
159 1 54.0997 4.93176 4.02676 
164 1 55.5234 7.39764 6.04015 
165 1 54.0997 4.93176 1.00669 
160 1 58.3707 7.39764 4.02676 
162 1 56.9471 4.93176 5.03346 
166 1 58.3707 7.39764 1.00669 
168 1 56.9471 4.93176 2.01338 
181 1 59.7944 4.93176 3.02007 
187 1 59.7944 4.93176 6.04015 
183 1 62.6463 4.93176 4.02676 
185 1 61.2181 7.39764 5.03346 
189 1 62.6463 4.93176 1.00669 
191 1 61.2181 7.39764 2.01338 
182 1 63.9654 7.39764 3.02007 
184 1 67.0025 7.39764 4.02676 
186 1 65.4949 4.93176 5.03346 
188 1 63.9654 7.39764 6.04015 
190 1 67.0025 7.39764 1.00669 
192 1 65.4949 4.93176 2.01338 
ITEM: TIMESTEP
2
ITEM: NUMBER OF ATOMS
192
ITEM: BOX BOUNDS ss pp pp
-0.00683365 66.9196
0 9.86352
0 6.04015
ITEM: ATOMS id type x y z 
1 1 0 0 0 
3 1 2.84735 0 1.00669 
5 1 1.42368 2.46588 2.01338 
7 1 0 0 3.02007 
9 1 2.84735 0 4.02676 
11 1 1.42368 2.46588 5.03346 
2 1 4.27103 2.46588 0 
6 1 5.69471 0 2.01338 
8 1 4.27103 2.46588 3.02007 
12 1 5.69471 0 5.03346 
4 1 7.11838 2.46588 1.00669 
10 1 7.11838 2.46588 4.02676 
25 1 8.54206 0 0 
29 1 9.96573 2.46588 2.01338 
31 1 8.54206 0 3.02007 
35 1 9.96573 2.46588 5.03346 
26 1 12.8131 2.46588 0 
27 1 11.3894 0 1.00669 
32 1 12.8131 2.46588 3.02007 
33 1 11.3894 0 4.02676 
28 1 15.6604 2.46588 1.00669 
30 1 14.2368 0 2.01338 
34 1 15.6604 2.46588 4.02676 
36 1 14.2368 0 5.03346 
49 1 17.0841 0 0 
55 1 17.0841 0 3.02007 
51 1 19.9315 0 1.00669 
53 1 18.5078 2.46588 2.01338 
57 1 19.9315 0 4.02676 
59 1 18.5078 2.46588 5.03346 
50 1 21.3551 2.46588 0 
52 1 24.2025 2.46588 1.00669 
54 1 22.7788 0 2.01338 
56 1 21.3551 2.46588 3.02007 
58 1 24.2025 2.46588 4.02676 
60 1 22.7788 0 5.03346 
73 1 25.6262 0 0 
77 1 27.0498 2.46588 2.01338 
79 1 25.6262 0 3.02007 
83 1 27.0498 2.46588 5.03346 
74 1 29.8972 2.46588 0 
75 1 28.4735 0 1.00669 
78 1 31.3209 0 2.01338 
80 1 29.8972 2.46588 3.02007 
81 1 28.4735 0 4.02676 
84 1 31.3209 0 5.03346 
76 1 32.7446 2.46588 1.00669 
82 1 32.7446 2.46588 4.02676 
97 1 34.1682 0 3.02007 
103 1 34.1682 0 6.04015 
98 1 38.4393 2.46588 3.02007 
99 1 37.0156 0 4.02676 
101 1 35.5919 2.46588 5.03346 
104 1 38.4393 2.46588 6.04015 
105 1 37.0156 0 1.00669 
107 1 35.5919 2.46588 2.01338 
100 1 41.2866 2.46588 4.02676 
102 1 39.8629 0 5.03346 
106 1 41.2866 2.46588 1.00669 
108 1 39.8629 0 2.01338 
121 1 42.7103 0 3.02007 
123 1 45.5576 0 4.02676 
125 1 44.134 2.46588 5.03346 
127 1 42.7103 0 6.04015 
129 1 45.5576 0 1.00669 
131 1 44.134 2.46588 2.01338 
122 1 46.9813 2.46588 3.02007 
126 1 48.405 0 5.03346 
128 1 46.9813 2.46588 6.04015 
132 1 48.405 0 2.01338 
124 1 49.8287 2.46588 4.02676 
130 1 49.8287 2.46588 1.00669 
145 1 51.2523 0 3.02007 
149 1 52.676 2.46588 5.03346 
151 1 51.2523 0 6.04015 
155 1 52.676 2.46588 2.01338 
146 1 55.5234 2.46588 3.02007 
147 1 54.0997 0 4.02676 
152 1 55.5234 2.46588 6.04015 
153 1 54.0997 0 1.00669 
148 1 58.3748 2.46588 4.02676 
150 1 56.9469 0 5.03346 
154 1 58.3748 2.46588 1.00669 
156 1 56.9469 0 2.01338 
169 1 59.8077 0 3.02007 
175 1 59.8077 0 6.04015 
171 1 62.6255 0 4.02676 
173 1 61.1512 2.46588 5.03346 
177 1 62.6255 0 1.00669 
179 1 61.1512 2.46588 2.01338 
170 1 63.9585 2.46588 3.02007 
172 1 67.0582 2.46588 4.02676 
174 1 65.5166 0 5.03346 
176 1 63.9585 2.46588 6.04015 
178 1 67.0582 2.46588 1.00669 
180 1 65.5166 0 2.01338 
13 1 0 4.93176 0 
15 1 2.84735 4.93176 1.00669 
17 1 1.42368 7.39764 2.01338 
19 1 0 4.93176 3.02007 
21 1 2.84735 4.93176 4.02676 
23 1 1.42368 7.39764 5.03346 
14 1 4.27103 7.39764 0 
18 1 5.69471 4.93176 2.01338 
20 1 4.27103 7.39764 3.02007 
24 1 5.69471 4.93176 5.03346 
16 1 7.11838 7.39764 1.00669 
22 1 7.11838 7.39764 4.02676 
37 1 8.54206 4.93176 0 
41 1 9.96573 7.39764 2.01338 
43 1 8.54206 4.93176 3.02007 
47 1 9.96573 7.39764 5.03346 
38 1 12.8131 7.39764 0 
39 1 11.3894 4.93176 1.00669 
44 1 12.8131 7.39764 3.02007 
45 1 11.3894 4.93176 4.02676 
40 1 15.6604 7.39764 1.00669 
42 1 14.2368 4.93176 2.01338 
46 1 15.6604 7.39764 4.02676 
48 1 14.2368 4.93176 5.03346 
61 1 17.0841 4.93176 0 
67 1 17.0841 4.93176 3.02007 
63 1 19.9315 4.93176 1.00669 
65 1 18.5078 7.39764 2.01338 
69 1 19.9315 4.93176 4.02676 
71 1 18.5078 7.39764 5.03346 
62 1 21.3551 7.39764 0 
64 1 24.2025 7.39764 1.00669 
66 1 22.7788 4.93176 2.01338 
68 1 21.3551 7.39764 3.02007 
70 1 24.2025 7.39764 4.02676 
72 1 22.7788 4.93176 5.03346 
85 1 25.6262 4.93176 0 
89 1 27.0498 7.39764 2.01338 
91 1 25.6262 4.93176 3.02007 
95 1 27.0498 7.39764 5.03346 
86 1 29.8972 7.39764 0 
87 1 28.4735 4.93176 1.00669 
90 1 31.3209 4.93176 2.01338 
92 1 29.8972 7.39764 3.02007 
93 1 28.4735 4.93176 4.02676 
96 1 31.3209 4.93176 5.03346 
88 1 32.7446 7.39764 1.00669 
94 1 32.7446 7.39764 4.02676 
109 1 34.1682 4.93176 3.02007 
115 1 34.1682 4.93176 6.04015 
110 1 38.4393 7.39764 3.02007 
111 1 37.0156 4.93176 4.02676 
113 1 35.5919 7.39764 5.03346 
116 1 38.4393 7.39764 6.04015 
117 1 37.0156 4.93176 1.00669 
119 1 35.5919 7.39764 2.01338 
112 1 41.2866 7.39764 4.02676 
114 1 39.8629 4.93176 5.03346 
118 1 41.2866 7.39764 1.00669 
120 1 39.8629 4.93176 2.01338 
133 1 42.7103 4.93176 3.02007 
135 1 45.5576 4.93176 4.02676 
137 1 44.134 7.39764 5.03346 
139 1 42.7103 4.93176 6.04015 
141 1 45.5576 4.93176 1.00669 
143 1 44.134 7.39764 2.01338 
134 1 46.9813 7.39764 3.02007 
138 1 48.405 4.93176 5.03346 
140 1 46.9813 7.39764 6.04015 
144 1 48.405 4.93176 2.01338 
136 1 49.8287 7.39764 4.02676 
142 1 49.8287 7.39764 1.00669 
157 1 51.2523 4.93176 3.02007 
161 1 52.676 7.39764 5.03346 
163 1 51.2523 4.93176 6.04015 
167 1 52.676 7.39764 2.01338 
158 1 55.5234 7.39764 3.02007 
159 1 54.0997 4.93176 4.02676 
164 1 55.5234 7.39764 6.04015 
165 1 54.0997 4.93176 1.00669 
160 1 58.3748 7.39764 4.02676 
162 1 56.9469 4.93176 5.03346 
166 1 58.3748 7.39764 1.00669 
168 1 56.9469 4.93176 2.01338 
181 1 59.8077 4.93176 3.02007 
187 1 59.8077 4.93176 6.04015 
183 1 62.6255 4.93176 4.02676 
185 1 61.1512 7.39764 5.03346 
189 1 62.6255 4.93176 1.00669 
191 1 61.1512 7.39764 2.01338 
182 1 63.9585 7.39764 3.02007 
184 1 67.0582 7.39764 4.02676 
186 1 65.5166 4.93176 5.03346 
188 1 63.9585 7.39764 6.04015 
190 1 67.0582 7.39764 1.00669 
192 1 65.5166 4.93176 2.01338 
ITEM: TIMESTEP
3
ITEM: NUMBER OF ATOMS
192
ITEM: BOX BOUNDS ss pp pp
-0.00683365 66.9196
0 9.86352
0 6.04015
ITEM: ATOMS id type x y z 
1 1 0 0 0 
3 1 2.84735 0 1.00669 
5 1 1.42368 2.46588 2.01338 
7 1 0 0 3.02007 
9 1 2.84735 0 4.02676 
11 1 1.42368 2.46588 5.03346 
2 1 4.27103 2.46588 0 
6 1 5.69471 0 2.01338 
8 1 4.27103 2.46588 3.02007 
12 1 5.69471 0 5.03346 
4 1 7.11838 2.46588 1.00669 
10 1 7.11838 2.46588 4.02676 
25 1 8.54206 0 0 
29 1 9.96573 2.46588 2.01338 
31 1 8.54206 0 3.02007 
35 1 9.96573 2.46588 5.03346 
26 1 12.8131 2.46588 0 
27 1 11.3894 0 1.00669 
32 1 12.8131 2.46588 3.02007 
33 1 11.3894 0 4.02676 
28 1 15.6604 2.46588 1.00669 
30 1 14.2368 0 2.01338 
34 1 15.6604 2.46588 4.02676 
36 1 14.2368 0 5.03346 
49 1 17.0841 0 0 
55 1 17.0841 0 3.02007 
51 1 19.9315 0 1.00669 
53 1 18.5078 2.46588 2.01338 
57 1 19.9315 0 4.02676 
59 1 18.5078 2.46588 5.03346 
50 1 21.3551 2.46588 0 
52 1 24.2025 2.46588 1.00669 
54 1 22.7788 0 2.01338 
56 1 21.3551 2.46588 3.02007 
58 1 24.2025 2.46588 4.02676 
60 1 22.7788 0 5.03346 
73 1 25.6262 0 0 
77 1 27.0498 2.46588 2.01338 
79 1 25.6262 0 3.02007 
83 1 27.0498 2.46588 5.03346 
74 1 29.8972 2.46588 0 
75 1 28.4735 0 1.00669 
78 1 31.3209 0 2.01338 
80 1 29.8972 2.46588 3.02007 
81 1 28.4735 0 4.02676 
84 1 31.3209 0 5.03346 
76 1 32.7446 2.46588 1.00669 
82 1 32.7446 2.46588 4.02676 
97 1 34.1682 0 3.02007 
103 1 34.1682 0 6.04015 
98 1 38.4393 2.46588 3.02007 
99 1 37.0156 0 4.02676 
101 1 35.5919 2.46588 5.03346 
104 1 38.4393 2.46588 6.04015 
105 1 37.0156 0 1.00669 
107 1 35.5919 2.46588 2.01338 
100 1 41.2866 2.46588 4.02676 
102 1 39.8629 0 5.03346 
106 1 41.2866 2.46588 1.00669 
108 1 39.8629 0 2.01338 
121 1 42.7103 0 3.02007 
123 1 45.5576 0 4.02676 
125 1 44.134 2.46588 5.03346 
127 1 42.7103 0 6.04015 
129 1 45.5576 0 1.00669 
131 1 44.134 2.46588 2.01338 
122 1 46.9813 2.46588 3.02007 
126 1 48.405 0 5.03346 
128 1 46.9813 2.46588 6.04015 
132 1 48.405 0 2.01338 
124 1 49.8287 2.46588 4.02676 
130 1 49.8287 2.46588 1.00669 
145 1 51.2524 0 3.02007 
149 1 52.6759 2.46588 5.03346 
151 1 51.2524 0 6.04015 
155 1 52.6759 2.46588 2.01338 
146 1 55.5263 2.46588 3.02007 
147 1 54.0988 0 4.02676 
152 1 55.5263 2.46588 6.04015 
153 1 54.0988 0 1.00669 
148 1 58.347 2.46588 4.02676 
150 1 56.9598 0 5.03346 
154 1 58.347 2.46588 1.00669 
156 1 56.9598 0 2.01338 
169 1 59.7906 0 3.02007 
175 1 59.7906 0 6.04015 
171 1 62.623 0 4.02676 
173 1 61.142 2.46588 5.03346 
177 1 62.623 0 1.00669 
179 1 61.142 2.46588 2.01338 
170 1 63.9434 2.46588 3.02007 
172 1 67.0978 2.46588 4.02676 
174 1 65.5336 0 5.03346 
176 1 63.9434 2.46588 6.04015 
178 1 67.0978 2.46588 1.00669 
180 1 65.5336 0 2.01338 
13 1 0 4.93176 0 
15 1 2.84735 4.93176 1.00669 
17 1 1.42368 7.39764 2.01338 
19 1 0 4.93176 3.02007 
21 1 2.84735 4.93176 4.02676 
23 1 1.42368 7.39764 5.03346 
14 1 4.27103 7.39764 0 
18 1 5.69471 4.93176 2.01338 
20 1 4.27103 7.39764 3.02007 
24 1 5.69471 4.93176 5.03346 
16 1 7.11838 7.39764 1.00669 
22 1 7.11838 7.39764 4.02676 
37 1 8.54206 4.93176 0 
41 1 9.96573 7.39764 2.01338 
43 1 8.54206 4.93176 3.02007 
47 1 9.96573 7.39764 5.03346 
38 1 12.8131 7.39764 0 
39 1 11.3894 4.93176 1.00669 
44 1 12.8131 7.39764 3.02007 
45 1 11.3894 4.93176 4.02676 
40 1 15.6604 7.39764 1.00669 
42 1 14.2368 4.93176 2.01338 
46 1 15.6604 7.39764 4.02676 
48 1 14.2368 4.93176 5.03346 
61 1 17.0841 4.93176 0 
67 1 17.0841 4.93176 3.02007 
63 1 19.9315 4.93176 1.00669 
65 1 18.5078 7.39764 2.01338 
69 1 19.9315 4.93176 4.02676 
71 1 18.5078 7.39764 5.03346 
62 1 21.3551 7.39764 0 
64 1 24.2025 7.39764 1.00669 
66 1 22.7788 4.93176 2.01338 
68 1 21.3551 7.39764 3.02007 
70 1 24.2025 7.39764 4.02676 
72 1 22.7788 4.93176 5.03346 
85 1 25.6262 4.93176 0 
89 1 27.0498 7.39764 2.01338 
91 1 25.6262 4.93176 3.02007 
95 1 27.0498 7.39764 5.03346 
86 1 29.8972 7.39764 0 
87 1 28.4735 4.93176 1.00669 
90 1 31.3209 4.93176 2.01338 
92 1 29.8972 7.39764 3.02007 
93 1 28.4735 4.93176 4.02676 
96 1 31.3209 4.93176 5.03346 
88 1 32.7446 7.39764 1.00669 
94 1 32.7446 7.39764 4.02676 
109 1 34.1682 4.93176 3.02007 
115 1 34.1682 4.93176 6.04015 
110 1 38.4393 7.39764 3.02007 
111 1 37.0156 4.93176 4.02676 
113 1 35.5919 7.39764 5.03346 
116 1 38.4393 7.39764 6.04015 
117 1 37.0156 4.93176 1.00669 
119 1 35.5919 7.39764 2.01338 
112 1 41.2866 7.39764 4.02676 
114 1 39.8629 4.93176 5.03346 
118 1 41.2866 7.39764 1.00669 
120 1 39.8629 4.93176 2.01338 
133 1 42.7103 4.93176 3.02007 
135 1 45.5576 4.93176 4.02676 
137 1 44.134 7.39764 5.03346 
139 1 42.7103 4.93176 6.04015 
141 1 45.5576 4.93176 1.00669 
143 1 44.134 7.39764 2.01338 
134 1 46.9813 7.39764 3.02007 
138 1 48.405 4.93176 5.03346 
140 1 46.9813 7.39764 6.04015 
144 1 48.405 4.93176 2.01338 
136 1 49.8287 7.39764 4.02676 
142 1 49.8287 7.39764 1.00669 
157 1 51.2524 4.93176 3.02007 
161 1 52.6759 7.39764 5.03346 
163 1 51.2524 4.93176 6.04015 
167 1 52.6759 7.39764 2.01338 
158 1 55.5263 7.39764 3.02007 
159 1 54.0988 4.93176 4.02676 
164 1 55.5263 7.39764 6.04015 
165 1 54.0988 4.93176 1.00669 
160 1 58.347 7.39764 4.02676 
162 1 56.9598 4.93176 5.03346 
166 1 58.347 7.39764 1.00669 
168 1 56.9598 4.93176 2.01338 
181 1 59.7906 4.93176 3.02007 
187 1 59.7906 4.93176 6.04015 
183 1 62.623 4.93176 4.02676 
185 1 61.142 7.39764 5.03346 
189 1 62.623 4.93176 1.00669 
191 1 61.142 7.39764 2.01338 
182 1 63.9434 7.39764 3.02007 
184 1 67.0978 7.39764 4.02676 
186 1 65.5336 4.93176 5.03346 
188 1 63.9434 7.39764 6.04015 
190 1 67.0978 7.39764 1.00669 
192 1 65.5336 4.93176 2.01338 
ITEM: TIMESTEP
4
ITEM: NUMBER OF ATOMS
192
ITEM: BOX BOUNDS ss pp pp
-0.00683365 66.9196
0 9.86352
0 6.04015
ITEM: ATOMS id type x y z 
1 1 0 0 0 
3 1 2.84735 0 1.00669 
5 1 1.42368 2.46588 2.01338 
7 1 0 0 3.02007 
9 1 2.84735 0 4.02676 
11 1 1.42368 2.46588 5.03346 
2 1 4.27103 2.46588 0 
6 1 5.69471 0 2.01338 
8 1 4.27103 2.46588 3.02007 
12 1 5.69471 0 5.03346 
4 1 7.11838 2.46588 1.00669 
10 1 7.11838 2.46588 4.02676 
25 1 8.54206 0 0 
29 1 9.96573 2.46588 2.01338 
31 1 8.54206 0 3.02007 
35 1 9.96573 2.46588 5.03346 
26 1 12.8131 2.46588 0 
27 1 11.3894 0 1.00669 
32 1 12.8131 2.46588 3.02007 
33 1 11.3894 0 4.02676 
28 1 15.6604 2.46588 1.00669 
30 1 14.2368 0 2.01338 
34 1 15.6604 2.46588 4.02676 
36 1 14.2368 0 5.03346 
49 1 17.0841 0 0 
55 1 17.0841 0 3.02007 
51 1 19.9315 0 1.00669 
53 1 18.5078 2.46588 2.01338 
57 1 19.9315 0 4.02676 
59 1 18.5078 2.46588 5.03346 
50 1 21.3551 2.46588 0 
52 1 24.2025 2.46588 1.00669 
54 1 22.7788 0 2.01338 
56 1 21.3551 2.46588 3.02007 
58 1 24.2025 2.46588 4.02676 
60 1 22.7788 0 5.03346 
73 1 25.6262 0 0 
77 1 27.0498 2.46588 2.01338 
79 1 25.6262 0 3.02007 
83 1 27.0498 2.46588 5.03346 
74 1 29.8972 2.46588 0 
75 1 28.4735 0 1.00669 
78 1 31.3209 0 2.01338 
80 1 29.8972 2.46588 3.02007 
81 1 28.4735 0 4.02676 
84 1 31.3209 0 5.03346 
76 1 32.7446 2.46588 1.00669 
82 1 32.7446 2.46588 4.02676 
97 1 34.1682 0 3.02007 
103 1 34.1682 0 6.04015 
98 1 38.4393 2.46588 3.02007 
99 1 37.0156 0 4.02676 
101 1 35.5919 2.46588 5.03346 
104 1 38.4393 2.46588 6.04015 
105 1 37.0156 0 1.00669 
107 1 35.5919 2.46588 2.01338 
100 1 41.2866 2.46588 4.02676 
102 1 39.8629 0 5.03346 
106 1 41.2866 2.46588 1.00669 
108 1 39.8629 0 2.01338 
121 1 42.7103 0 3.02007 
123 1 45.5576 0 4.02676 
125 1 44.134 2.46588 5.03346 
127 1 42.7103 0 6.04015 
129 1 45.5576 0 1.00669 
131 1 44.134 2.46588 2.01338 
122 1 46.9813 2.46588 3.02007 
126 1 48.4051 0 5.03346 
128 1 46.9813 2.46588 6.04015 
132 1 48.4051 0 2.01338 
124 1 49.8285 2.46588 4.02676 
130 1 49.8285 2.46588 1.00669 
145 1 51.2505 0 3.02007 
149 1 52.6775 2.46588 5.03346 
151 1 51.2505 0 6.04015 
155 1 52.6775 2.46588 2.01338 
146 1 55.5124 2.46588 3.02007 
147 1 54.1139 0 4.02676 
152 1 55.5124 2.46588 6.04015 
153 1 54.1139 0 1.00669 
148 1 58.3262 2.46588 4.02676 
150 1 56.9489 0 5.03346 
154 1 58.3262 2.46588 1.00669 
156 1 56.9489 0 2.01338 
169 1 59.7726 0 3.02007 
175 1 59.7726 0 6.04015 
171 1 62.6245 0 4.02676 
173 1 61.1304 2.46588 5.03346 
177 1 62.6245 0 1.00669 
179 1 61.1304 2.46588 2.01338 
170 1 63.9622 2.46588 3.02007 
172 1 67.12 2.46588 4.02676 
174 1 65.5516 0 5.03346 
176 1 63.9622 2.46588 6.04015 
178 1 67.12 2.46588 1.00669 
180 1 65.5516 0 2.01338 
13 1 0 4.93176 0 
15 1 2.84735 4.93176 1.00669 
17 1 1.42368 7.39764 2.01338 
19 1 0 4.93176 3.02007 
21 1 2.84735 4.93176 4.02676 
23 1 1.42368 7.39764 5.03346 
14 1 4.27103 7.39764 0 
18 1 5.69471 4.93176 2.01338 
20 1 4.27103 7.39764 3.02007 
24 1 5.69471 4.93176 5.03346 
16 1 7.11838 7.39764 1.00669 
22 1 7.11838 7.39764 4.02676 
37 1 8.54206 4.93176 0 
41 1 9.96573 7.39764 2.01338 
43 1 8.54206 4.93176 3.02007 
47 1 9.96573 7.39764 5.03346 
38 1 12.8131 7.39764 0 
39 1 11.3894 4.93176 1.00669 
44 1 12.8131 7.39764 3.02007 
45 1 11.3894 4.93176 4.02676 
40 1 15.6604 7.39764 1.00669 
42 1 14.2368 4.93176 2.01338 
46 1 15.6604 7.39764 4.02676 
48 1 14.2368 4.93176 5.03346 
61 1 17.0841 4.93176 0 
67 1 17.0841 4.93176 3.02007 
63 1 19.9315 4.93176 1.00669 
65 1 18.5078 7.39764 2.01338 
69 1 19.9315 4.93176 4.02676 
71 1 18.5078 7.39764 5.03346 
62 1 21.3551 7.39764 0 
64 1 24.2025 7.39764 1.00669 
66 1 22.7788 4.93176 2.01338 
68 1 21.3551 7.39764 3.02007 
70 1 24.2025 7.39764 4.02676 
72 1 22.7788 4.93176 5.03346 
85 1 25.6262 4.93176 0 
89 1 27.0498 7.39764 2.01338 
91 1 25.6262 4.93176 3.02007 
95 1 27.0498 7.39764 5.03346 
86 1 29.8972 7.39764 0 
87 1 28.4735 4.93176 1.00669 
90 1 31.3209 4.93176 2.01338 
92 1 29.8972 7.39764 3.02007 
93 1 28.4735 4.93176 4.02676 
96 1 31.3209 4.93176 5.03346 
88 1 32.7446 7.39764 1.00669 
94 1 32.7446 7.39764 4.02676 
109 1 34.1682 4.93176 3.02007 
115 1 34.1682 4.93176 6.04015 
110 1 38.4393 7.39764 3.02007 
111 1 37.0156 4.93176 4.02676 
113 1 35.5919 7.39764 5.03346 
116 1 38.4393 7.39764 6.04015 
117 1 37.0156 4.93176 1.00669 
119 1 35.5919 7.39764 2.01338 
112 1 41.2866 7.39764 4.02676 
114 1 39.8629 4.93176 5.03346 
118 1 41.2866 7.39764 1.00669 
120 1 39.8629 4.93176 2.01338 
133 1 42.7103 4.93176 3.02007 
135 1 45.5576 4.93176 4.02676 
137 1 44.134 7.39764 5.03346 
139 1 42.7103 4.93176 6.04015 
141 1 45.5576 4.93176 1.00669 
143 1 44.134 7.39764 2.01338 
134 1 46.9813 7.39764 3.02007 
138 1 48.4051 4.93176 5.03346 
140 1 46.9813 7.39764 6.04015 
144 1 48.4051 4.93176 2.01338 
136 1 49.8285 7.39764 4.02676 
142 1 49.8285 7.39764 1.00669 
157 1 51.2505 4.93176 3.02007 
161 1 52.6775 7.39764 5.03346 
163 1 51.2505 4.93176 6.04015 
167 1 52.6775 7.39764 2.01338 
158 1 55.5124 7.39764 3.02007 
159 1 54.1139 4.93176 4.02676 
164 1 55.5124 7.39764 6.04015 
165 1 54.1139 4.93176 1.00669 
160 1 58.3262 7.39764 4.02676 
162 1 56.9489 4.93176 5.03346 
166 1 58.3262 7.39764 1.00669 
168 1 56.9489 4.93176 2.01338 
181 1 59.7726 4.93176 3.02007 
187 1 59.7726 4.93176 6.04015 
183 1 62.6245 4.93176 4.02676 
185 1 61.1304 7.39764 5.03346 
189 1 62.6245 4.93176 1.00669 
191 1 61.1304 7.39764 2.01338 
182 1 63.9622 7.39764 3.02007 
184 1 67.12 7.39764 4.02676 
186 1 65.5516 4.93176 5.03346 
188 1 63.9622 7.39764 6.04015 
190 1 67.12 7.39764 1.00669 
192 1 65.5516 4.93176 2.01338 
ITEM: TIMESTEP
5
ITEM: NUMBER OF ATOMS
192
ITEM: BOX BOUNDS ss pp pp
-0.00683365 66.9196
0 9.86352
0 6.04015
ITEM: ATOMS id type x y z 
1 1 0 0 0 
3 1 2.84735 0 1.00669 
5 1 1.42368 2.46588 2.01338 
7 1 0 0 3.02007 
9 1 2.84735 0 4.02676 
11 1 1.42368 2.46588 5.03346 
2 1 4.27103 2.46588 0 
6 1 5.69471 0 2.01338 
8 1 4.27103 2.46588 3.02007 
12 1 5.69471 0 5.03346 
4 1 7.11838 2.46588 1.00669 
10 1 7.11838 2.46588 4.02676 
25 1 8.54206 0 0 
29 1 9.96573 2.46588 2.01338 
31 1 8.54206 0 3.02007 
35 1 9.96573 2.46588 5.03346 
26 1 12.8131 2.46588 0 
27 1 11.3894 0 1.00669 
32 1 12.8131 2.46588 3.02007 
33 1 11.3894 0 4.02676 
28 1 15.6604 2.46588 1.00669 
30 1 14.2368 0 2.01338 
34 1 15.6604 2.46588 4.02676 
36 1 14.2368 0 5.03346 
49 1 17.0841 0 0 
55 1 17.0841 0 3.02007 
51 1 19.9315 0 1.00669 
53 1 18.5078 2.46588 2.01338 
57 1 19.9315 0 4.02676 
59 1 18.5078 2.46588 5.03346 
50 1 21.3551 2.46588 0 
52 1 24.2025 2.46588 1.00669 
54 1 22.7788 0 2.01338 
56 1 21.3551 2.46588 3.02007 
58 1 24.2025 2.46588 4.02676 
60 1 22.7788 0 5.03346 
73 1 25.6262 0 0 
77 1 27.0498 2.46588 2.01338 
79 1 25.6262 0 3.02007 
83 1 27.0498 2.46588 5.03346 
74 1 29.8972 2.46588 0 
75 1 28.4735 0 1.00669 
78 1 31.3209 0 2.01338 
80 1 29.8972 2.46588 3.02007 
81 1 28.4735 0 4.02676 
84 1 31.3209 0 5.03346 
76 1 32.7446 2.46588 1.00669 
82 1 32.7446 2.46588 4.02676 
97 1 34.1682 0 3.02007 
103 1 34.1682 0 6.04015 
98 1 38.4393 2.46588 3.02007 
99 1 37.0156 0 4.02676 
101 1 35.5919 2.46588 5.03346 
104 1 38.4393 2.46588 6.04015 
105 1 37.0156 0 1.00669 
107 1 35.5919 2.46588 2.01338 
100 1 41.2866 2.46588 4.02676 
102 1 39.8629 0 5.03346 
106 1 41.2866 2.46588 1.00669 
108 1 39.8629 0 2.01338 
121 1 42.7103 0 3.02007 
123 1 45.5578 0 4.02676 
125 1 44.134 2.46588 5.03346 
127 1 42.7103 0 6.04015 
129 1 45.5578 0 1.00669 
131 1 44.134 2.46588 2.01338 
122 1 46.9814 2.46588 3.02007 
126 1 48.4031 0 5.03346 
128 1 46.9814 2.46588 6.04015 
132 1 48.4031 0 2.01338 
124 1 49.828 2.46588 4.02676 
130 1 49.828 2.46588 1.00669 
145 1 51.2622 0 3.02007 
149 1 52.6737 2.46588 5.03346 
151 1 51.2622 0 6.04015 
155 1 52.6737 2.46588 2.01338 
146 1 55.5054 2.46588 3.02007 
147 1 54.1049 0 4.02676 