 
 720 atoms 
 
 1 atom types
 0.00000000000000000000 20.92368261877627588774 xlo xhi
 0.00000000000000000000 20.92368261877627588774 ylo yhi
 0.00000000000000000000 34.87280436462712174261 zlo zhi
 
 Atoms 
 
	1	1	0.00000000000000000000	0.00000000000000000000	0.00000000000000000000
	2	1	1.74364021823135617595	1.74364021823135617595	1.74364021823135617595
	3	1	0.00000000000000000000	0.00000000000000000000	3.48728043646271235190
	4	1	1.74364021823135617595	1.74364021823135617595	5.23092065469406897193
	5	1	0.00000000000000000000	0.00000000000000000000	6.97456087292542470379
	6	1	1.74364021823135617595	1.74364021823135617595	8.71820109115678043565
	7	1	0.00000000000000000000	0.00000000000000000000	10.46184130938813794387
	8	1	1.74364021823135617595	1.74364021823135617595	12.20548152761949367573
	9	1	0.00000000000000000000	0.00000000000000000000	13.94912174585084940759
	10	1	1.74364021823135617595	1.74364021823135617595	15.69276196408220513945
	11	1	0.00000000000000000000	0.00000000000000000000	17.43640218231356087131
	12	1	1.74364021823135617595	1.74364021823135617595	19.18004240054491660317
	13	1	0.00000000000000000000	0.00000000000000000000	20.92368261877627588774
	14	1	1.74364021823135617595	1.74364021823135617595	22.66732283700763161960
	15	1	0.00000000000000000000	0.00000000000000000000	24.41096305523898735146
	16	1	1.74364021823135617595	1.74364021823135617595	26.15460327347034308332
	17	1	0.00000000000000000000	0.00000000000000000000	27.89824349170169881518
	18	1	1.74364021823135617595	1.74364021823135617595	29.64188370993305454704
	19	1	0.00000000000000000000	0.00000000000000000000	31.38552392816441027890
	20	1	1.74364021823135617595	1.74364021823135617595	33.12916414639576601076
	21	1	0.00000000000000000000	3.48728043646271235190	0.00000000000000000000
	22	1	1.74364021823135617595	5.23092065469406897193	1.74364021823135617595
	23	1	0.00000000000000000000	3.48728043646271235190	3.48728043646271235190
	24	1	1.74364021823135617595	5.23092065469406897193	5.23092065469406897193
	25	1	0.00000000000000000000	3.48728043646271235190	6.97456087292542470379
	26	1	1.74364021823135617595	5.23092065469406897193	8.71820109115678043565
	27	1	0.00000000000000000000	3.48728043646271235190	10.46184130938813794387
	28	1	1.74364021823135617595	5.23092065469406897193	12.20548152761949367573
	29	1	0.00000000000000000000	3.48728043646271235190	13.94912174585084940759
	30	1	1.74364021823135617595	5.23092065469406897193	15.69276196408220513945
	31	1	0.00000000000000000000	3.48728043646271235190	17.43640218231356087131
	32	1	1.74364021823135617595	5.23092065469406897193	19.18004240054491660317
	33	1	0.00000000000000000000	3.48728043646271235190	20.92368261877627588774
	34	1	1.74364021823135617595	5.23092065469406897193	22.66732283700763161960
	35	1	0.00000000000000000000	3.48728043646271235190	24.41096305523898735146
	36	1	1.74364021823135617595	5.23092065469406897193	26.15460327347034308332
	37	1	0.00000000000000000000	3.48728043646271235190	27.89824349170169881518
	38	1	1.74364021823135617595	5.23092065469406897193	29.64188370993305454704
	39	1	0.00000000000000000000	3.48728043646271235190	31.38552392816441027890
	40	1	1.74364021823135617595	5.23092065469406897193	33.12916414639576601076
	41	1	0.00000000000000000000	6.97456087292542470379	0.00000000000000000000
	42	1	1.74364021823135617595	8.71820109115678043565	1.74364021823135617595
	43	1	0.00000000000000000000	6.97456087292542470379	3.48728043646271235190
	44	1	1.74364021823135617595	8.71820109115678043565	5.23092065469406897193
	45	1	0.00000000000000000000	6.97456087292542470379	6.97456087292542470379
	46	1	1.74364021823135617595	8.71820109115678043565	8.71820109115678043565
	47	1	0.00000000000000000000	6.97456087292542470379	10.46184130938813794387
	48	1	1.74364021823135617595	8.71820109115678043565	12.20548152761949367573
	49	1	0.00000000000000000000	6.97456087292542470379	13.94912174585084940759
	50	1	1.74364021823135617595	8.71820109115678043565	15.69276196408220513945
	51	1	0.00000000000000000000	6.97456087292542470379	17.43640218231356087131
	52	1	1.74364021823135617595	8.71820109115678043565	19.18004240054491660317
	53	1	0.00000000000000000000	6.97456087292542470379	20.92368261877627588774
	54	1	1.74364021823135617595	8.71820109115678043565	22.66732283700763161960
	55	1	0.00000000000000000000	6.97456087292542470379	24.41096305523898735146
	56	1	1.74364021823135617595	8.71820109115678043565	26.15460327347034308332
	57	1	0.00000000000000000000	6.97456087292542470379	27.89824349170169881518
	58	1	1.74364021823135617595	8.71820109115678043565	29.64188370993305454704
	59	1	0.00000000000000000000	6.97456087292542470379	31.38552392816441027890
	60	1	1.74364021823135617595	8.71820109115678043565	33.12916414639576601076
	61	1	0.00000000000000000000	10.46184130938813794387	0.00000000000000000000
	62	1	1.74364021823135617595	12.20548152761949367573	1.74364021823135617595
	63	1	0.00000000000000000000	10.46184130938813794387	3.48728043646271235190
	64	1	1.74364021823135617595	12.20548152761949367573	5.23092065469406897193
	65	1	0.00000000000000000000	10.46184130938813794387	6.97456087292542470379
	66	1	1.74364021823135617595	12.20548152761949367573	8.71820109115678043565
	67	1	0.00000000000000000000	10.46184130938813794387	10.46184130938813794387
	68	1	1.74364021823135617595	12.20548152761949367573	12.20548152761949367573
	69	1	0.00000000000000000000	10.46184130938813794387	13.94912174585084940759
	70	1	1.74364021823135617595	12.20548152761949367573	15.69276196408220513945
	71	1	0.00000000000000000000	10.46184130938813794387	17.43640218231356087131
	72	1	1.74364021823135617595	12.20548152761949367573	19.18004240054491660317
	73	1	0.00000000000000000000	10.46184130938813794387	20.92368261877627588774
	74	1	1.74364021823135617595	12.20548152761949367573	22.66732283700763161960
	75	1	0.00000000000000000000	10.46184130938813794387	24.41096305523898735146
	76	1	1.74364021823135617595	12.20548152761949367573	26.15460327347034308332
	77	1	0.00000000000000000000	10.46184130938813794387	27.89824349170169881518
	78	1	1.74364021823135617595	12.20548152761949367573	29.64188370993305454704
	79	1	0.00000000000000000000	10.46184130938813794387	31.38552392816441027890
	80	1	1.74364021823135617595	12.20548152761949367573	33.12916414639576601076
	81	1	0.00000000000000000000	13.94912174585084940759	0.00000000000000000000
	82	1	1.74364021823135617595	15.69276196408220513945	1.74364021823135617595
	83	1	0.00000000000000000000	13.94912174585084940759	3.48728043646271235190
	84	1	1.74364021823135617595	15.69276196408220513945	5.23092065469406897193
	85	1	0.00000000000000000000	13.94912174585084940759	6.97456087292542470379
	86	1	1.74364021823135617595	15.69276196408220513945	8.71820109115678043565
	87	1	0.00000000000000000000	13.94912174585084940759	10.46184130938813794387
	88	1	1.74364021823135617595	15.69276196408220513945	12.20548152761949367573
	89	1	0.00000000000000000000	13.94912174585084940759	13.94912174585084940759
	90	1	1.74364021823135617595	15.69276196408220513945	15.69276196408220513945
	91	1	0.00000000000000000000	13.94912174585084940759	17.43640218231356087131
	92	1	1.74364021823135617595	15.69276196408220513945	19.18004240054491660317
	93	1	0.00000000000000000000	13.94912174585084940759	20.92368261877627588774
	94	1	1.74364021823135617595	15.69276196408220513945	22.66732283700763161960
	95	1	0.00000000000000000000	13.94912174585084940759	24.41096305523898735146
	96	1	1.74364021823135617595	15.69276196408220513945	26.15460327347034308332
	97	1	0.00000000000000000000	13.94912174585084940759	27.89824349170169881518
	98	1	1.74364021823135617595	15.69276196408220513945	29.64188370993305454704
	99	1	0.00000000000000000000	13.94912174585084940759	31.38552392816441027890
	100	1	1.74364021823135617595	15.69276196408220513945	33.12916414639576601076
	101	1	0.00000000000000000000	17.43640218231356087131	0.00000000000000000000
	102	1	1.74364021823135617595	19.18004240054491660317	1.74364021823135617595
	103	1	0.00000000000000000000	17.43640218231356087131	3.48728043646271235190
	104	1	1.74364021823135617595	19.18004240054491660317	5.23092065469406897193
	105	1	0.00000000000000000000	17.43640218231356087131	6.97456087292542470379
	106	1	1.74364021823135617595	19.18004240054491660317	8.71820109115678043565
	107	1	0.00000000000000000000	17.43640218231356087131	10.46184130938813794387
	108	1	1.74364021823135617595	19.18004240054491660317	12.20548152761949367573
	109	1	0.00000000000000000000	17.43640218231356087131	13.94912174585084940759
	110	1	1.74364021823135617595	19.18004240054491660317	15.69276196408220513945
	111	1	0.00000000000000000000	17.43640218231356087131	17.43640218231356087131
	112	1	1.74364021823135617595	19.18004240054491660317	19.18004240054491660317
	113	1	0.00000000000000000000	17.43640218231356087131	20.92368261877627588774
	114	1	1.74364021823135617595	19.18004240054491660317	22.66732283700763161960
	115	1	0.00000000000000000000	17.43640218231356087131	24.41096305523898735146
	116	1	1.74364021823135617595	19.18004240054491660317	26.15460327347034308332
	117	1	0.00000000000000000000	17.43640218231356087131	27.89824349170169881518
	118	1	1.74364021823135617595	19.18004240054491660317	29.64188370993305454704
	119	1	0.00000000000000000000	17.43640218231356087131	31.38552392816441027890
	120	1	1.74364021823135617595	19.18004240054491660317	33.12916414639576601076
	121	1	3.48728043646271235190	0.00000000000000000000	0.00000000000000000000
	122	1	5.23092065469406897193	1.74364021823135617595	1.74364021823135617595
	123	1	3.48728043646271235190	0.00000000000000000000	3.48728043646271235190
	124	1	5.23092065469406897193	1.74364021823135617595	5.23092065469406897193
	125	1	3.48728043646271235190	0.00000000000000000000	6.97456087292542470379
	126	1	5.23092065469406897193	1.74364021823135617595	8.71820109115678043565
	127	1	3.48728043646271235190	0.00000000000000000000	10.46184130938813794387
	128	1	5.23092065469406897193	1.74364021823135617595	12.20548152761949367573
	129	1	3.48728043646271235190	0.00000000000000000000	13.94912174585084940759
	130	1	5.23092065469406897193	1.74364021823135617595	15.69276196408220513945
	131	1	3.48728043646271235190	0.00000000000000000000	17.43640218231356087131
	132	1	5.23092065469406897193	1.74364021823135617595	19.18004240054491660317
	133	1	3.48728043646271235190	0.00000000000000000000	20.92368261877627588774
	134	1	5.23092065469406897193	1.74364021823135617595	22.66732283700763161960
	135	1	3.48728043646271235190	0.00000000000000000000	24.41096305523898735146
	136	1	5.23092065469406897193	1.74364021823135617595	26.15460327347034308332
	137	1	3.48728043646271235190	0.00000000000000000000	27.89824349170169881518
	138	1	5.23092065469406897193	1.74364021823135617595	29.64188370993305454704
	139	1	3.48728043646271235190	0.00000000000000000000	31.38552392816441027890
	140	1	5.23092065469406897193	1.74364021823135617595	33.12916414639576601076
	141	1	3.48728043646271235190	3.48728043646271235190	0.00000000000000000000
	142	1	5.23092065469406897193	5.23092065469406897193	1.74364021823135617595
	143	1	3.48728043646271235190	3.48728043646271235190	3.48728043646271235190
	144	1	5.23092065469406897193	5.23092065469406897193	5.23092065469406897193
	145	1	3.48728043646271235190	3.48728043646271235190	6.97456087292542470379
	146	1	5.23092065469406897193	5.23092065469406897193	8.71820109115678043565
	147	1	3.48728043646271235190	3.48728043646271235190	10.46184130938813794387
	148	1	5.23092065469406897193	5.23092065469406897193	12.20548152761949367573
	149	1	3.48728043646271235190	3.48728043646271235190	13.94912174585084940759
	150	1	5.23092065469406897193	5.23092065469406897193	15.69276196408220513945
	151	1	3.48728043646271235190	3.48728043646271235190	17.43640218231356087131
	152	1	5.23092065469406897193	5.23092065469406897193	19.18004240054491660317
	153	1	3.48728043646271235190	3.48728043646271235190	20.92368261877627588774
	154	1	5.23092065469406897193	5.23092065469406897193	22.66732283700763161960
	155	1	3.48728043646271235190	3.48728043646271235190	24.41096305523898735146
	156	1	5.23092065469406897193	5.23092065469406897193	26.15460327347034308332
	157	1	3.48728043646271235190	3.48728043646271235190	27.89824349170169881518
	158	1	5.23092065469406897193	5.23092065469406897193	29.64188370993305454704
	159	1	3.48728043646271235190	3.48728043646271235190	31.38552392816441027890
	160	1	5.23092065469406897193	5.23092065469406897193	33.12916414639576601076
	161	1	3.48728043646271235190	6.97456087292542470379	0.00000000000000000000
	162	1	5.23092065469406897193	8.71820109115678043565	1.74364021823135617595
	163	1	3.48728043646271235190	6.97456087292542470379	3.48728043646271235190
	164	1	5.23092065469406897193	8.71820109115678043565	5.23092065469406897193
	165	1	3.48728043646271235190	6.97456087292542470379	6.97456087292542470379
	166	1	5.23092065469406897193	8.71820109115678043565	8.71820109115678043565
	167	1	3.48728043646271235190	6.97456087292542470379	10.46184130938813794387
	168	1	5.23092065469406897193	8.71820109115678043565	12.20548152761949367573
	169	1	3.48728043646271235190	6.97456087292542470379	13.94912174585084940759
	170	1	5.23092065469406897193	8.71820109115678043565	15.69276196408220513945
	171	1	3.48728043646271235190	6.97456087292542470379	17.43640218231356087131
	172	1	5.23092065469406897193	8.71820109115678043565	19.18004240054491660317
	173	1	3.48728043646271235190	6.97456087292542470379	20.92368261877627588774
	174	1	5.23092065469406897193	8.71820109115678043565	22.66732283700763161960
	175	1	3.48728043646271235190	6.97456087292542470379	24.41096305523898735146
	176	1	5.23092065469406897193	8.71820109115678043565	26.15460327347034308332
	177	1	3.48728043646271235190	6.97456087292542470379	27.89824349170169881518
	178	1	5.23092065469406897193	8.71820109115678043565	29.64188370993305454704
	179	1	3.48728043646271235190	6.97456087292542470379	31.38552392816441027890
	180	1	5.23092065469406897193	8.71820109115678043565	33.12916414639576601076
	181	1	3.48728043646271235190	10.46184130938813794387	0.00000000000000000000
	182	1	5.23092065469406897193	12.20548152761949367573	1.74364021823135617595
	183	1	3.48728043646271235190	10.46184130938813794387	3.48728043646271235190
	184	1	5.23092065469406897193	12.20548152761949367573	5.23092065469406897193
	185	1	3.48728043646271235190	10.46184130938813794387	6.97456087292542470379
	186	1	5.23092065469406897193	12.20548152761949367573	8.71820109115678043565
	187	1	3.48728043646271235190	10.46184130938813794387	10.46184130938813794387
	188	1	5.23092065469406897193	12.20548152761949367573	12.20548152761949367573
	189	1	3.48728043646271235190	10.46184130938813794387	13.94912174585084940759
	190	1	5.23092065469406897193	12.20548152761949367573	15.69276196408220513945
	191	1	3.48728043646271235190	10.46184130938813794387	17.43640218231356087131
	192	1	5.23092065469406897193	12.20548152761949367573	19.18004240054491660317
	193	1	3.48728043646271235190	10.46184130938813794387	20.92368261877627588774
	194	1	5.23092065469406897193	12.20548152761949367573	22.66732283700763161960
	195	1	3.48728043646271235190	10.46184130938813794387	24.41096305523898735146
	196	1	5.23092065469406897193	12.20548152761949367573	26.15460327347034308332
	197	1	3.48728043646271235190	10.46184130938813794387	27.89824349170169881518
	198	1	5.23092065469406897193	12.20548152761949367573	29.64188370993305454704
	199	1	3.48728043646271235190	10.46184130938813794387	31.38552392816441027890
	200	1	5.23092065469406897193	12.20548152761949367573	33.12916414639576601076
	201	1	3.48728043646271235190	13.94912174585084940759	0.00000000000000000000
	202	1	5.23092065469406897193	15.69276196408220513945	1.74364021823135617595
	203	1	3.48728043646271235190	13.94912174585084940759	3.48728043646271235190
	204	1	5.23092065469406897193	15.69276196408220513945	5.23092065469406897193
	205	1	3.48728043646271235190	13.94912174585084940759	6.97456087292542470379
	206	1	5.23092065469406897193	15.69276196408220513945	8.71820109115678043565
	207	1	3.48728043646271235190	13.94912174585084940759	10.46184130938813794387
	208	1	5.23092065469406897193	15.69276196408220513945	12.20548152761949367573
	209	1	3.48728043646271235190	13.94912174585084940759	13.94912174585084940759
	210	1	5.23092065469406897193	15.69276196408220513945	15.69276196408220513945
	211	1	3.48728043646271235190	13.94912174585084940759	17.43640218231356087131
	212	1	5.23092065469406897193	15.69276196408220513945	19.18004240054491660317
	213	1	3.48728043646271235190	13.94912174585084940759	20.92368261877627588774
	214	1	5.23092065469406897193	15.69276196408220513945	22.66732283700763161960
	215	1	3.48728043646271235190	13.94912174585084940759	24.41096305523898735146
	216	1	5.23092065469406897193	15.69276196408220513945	26.15460327347034308332
	217	1	3.48728043646271235190	13.94912174585084940759	27.89824349170169881518
	218	1	5.23092065469406897193	15.69276196408220513945	29.64188370993305454704
	219	1	3.48728043646271235190	13.94912174585084940759	31.38552392816441027890
	220	1	5.23092065469406897193	15.69276196408220513945	33.12916414639576601076
	221	1	3.48728043646271235190	17.43640218231356087131	0.00000000000000000000
	222	1	5.23092065469406897193	19.18004240054491660317	1.74364021823135617595
	223	1	3.48728043646271235190	17.43640218231356087131	3.48728043646271235190
	224	1	5.23092065469406897193	19.18004240054491660317	5.23092065469406897193
	225	1	3.48728043646271235190	17.43640218231356087131	6.97456087292542470379
	226	1	5.23092065469406897193	19.18004240054491660317	8.71820109115678043565
	227	1	3.48728043646271235190	17.43640218231356087131	10.46184130938813794387
	228	1	5.23092065469406897193	19.18004240054491660317	12.20548152761949367573
	229	1	3.48728043646271235190	17.43640218231356087131	13.94912174585084940759
	230	1	5.23092065469406897193	19.18004240054491660317	15.69276196408220513945
	231	1	3.48728043646271235190	17.43640218231356087131	17.43640218231356087131
	232	1	5.23092065469406897193	19.18004240054491660317	19.18004240054491660317
	233	1	3.48728043646271235190	17.43640218231356087131	20.92368261877627588774
	234	1	5.23092065469406897193	19.18004240054491660317	22.66732283700763161960
	235	1	3.48728043646271235190	17.43640218231356087131	24.41096305523898735146
	236	1	5.23092065469406897193	19.18004240054491660317	26.15460327347034308332
	237	1	3.48728043646271235190	17.43640218231356087131	27.89824349170169881518
	238	1	5.23092065469406897193	19.18004240054491660317	29.64188370993305454704
	239	1	3.48728043646271235190	17.43640218231356087131	31.38552392816441027890
	240	1	5.23092065469406897193	19.18004240054491660317	33.12916414639576601076
	241	1	6.97456087292542470379	0.00000000000000000000	0.00000000000000000000
	242	1	8.71820109115678043565	1.74364021823135617595	1.74364021823135617595
	243	1	6.97456087292542470379	0.00000000000000000000	3.48728043646271235190
	244	1	8.71820109115678043565	1.74364021823135617595	5.23092065469406897193
	245	1	6.97456087292542470379	0.00000000000000000000	6.97456087292542470379
	246	1	8.71820109115678043565	1.74364021823135617595	8.71820109115678043565
	247	1	6.97456087292542470379	0.00000000000000000000	10.46184130938813794387
	248	1	8.71820109115678043565	1.74364021823135617595	12.20548152761949367573
	249	1	6.97456087292542470379	0.00000000000000000000	13.94912174585084940759
	250	1	8.71820109115678043565	1.74364021823135617595	15.69276196408220513945
	251	1	6.97456087292542470379	0.00000000000000000000	17.43640218231356087131
	252	1	8.71820109115678043565	1.74364021823135617595	19.18004240054491660317
	253	1	6.97456087292542470379	0.00000000000000000000	20.92368261877627588774
	254	1	8.71820109115678043565	1.74364021823135617595	22.66732283700763161960
	255	1	6.97456087292542470379	0.00000000000000000000	24.41096305523898735146
	256	1	8.71820109115678043565	1.74364021823135617595	26.15460327347034308332
	257	1	6.97456087292542470379	0.00000000000000000000	27.89824349170169881518
	258	1	8.71820109115678043565	1.74364021823135617595	29.64188370993305454704
	259	1	6.97456087292542470379	0.00000000000000000000	31.38552392816441027890
	260	1	8.71820109115678043565	1.74364021823135617595	33.12916414639576601076
	261	1	6.97456087292542470379	3.48728043646271235190	0.00000000000000000000
	262	1	8.71820109115678043565	5.23092065469406897193	1.74364021823135617595
	263	1	6.97456087292542470379	3.48728043646271235190	3.48728043646271235190
	264	1	8.71820109115678043565	5.23092065469406897193	5.23092065469406897193
	265	1	6.97456087292542470379	3.48728043646271235190	6.97456087292542470379
	266	1	8.71820109115678043565	5.23092065469406897193	8.71820109115678043565
	267	1	6.97456087292542470379	3.48728043646271235190	10.46184130938813794387
	268	1	8.71820109115678043565	5.23092065469406897193	12.20548152761949367573
	269	1	6.97456087292542470379	3.48728043646271235190	13.94912174585084940759
	270	1	8.71820109115678043565	5.23092065469406897193	15.69276196408220513945
	271	1	6.97456087292542470379	3.48728043646271235190	17.43640218231356087131
	272	1	8.71820109115678043565	5.23092065469406897193	19.18004240054491660317
	273	1	6.97456087292542470379	3.48728043646271235190	20.92368261877627588774
	274	1	8.71820109115678043565	5.23092065469406897193	22.66732283700763161960
	275	1	6.97456087292542470379	3.48728043646271235190	24.41096305523898735146
	276	1	8.71820109115678043565	5.23092065469406897193	26.15460327347034308332
	277	1	6.97456087292542470379	3.48728043646271235190	27.89824349170169881518
	278	1	8.71820109115678043565	5.23092065469406897193	29.64188370993305454704
	279	1	6.97456087292542470379	3.48728043646271235190	31.38552392816441027890
	280	1	8.71820109115678043565	5.23092065469406897193	33.12916414639576601076
	281	1	6.97456087292542470379	6.97456087292542470379	0.00000000000000000000
	282	1	8.71820109115678043565	8.71820109115678043565	1.74364021823135617595
	283	1	6.97456087292542470379	6.97456087292542470379	3.48728043646271235190
	284	1	8.71820109115678043565	8.71820109115678043565	5.23092065469406897193
	285	1	6.97456087292542470379	6.97456087292542470379	6.97456087292542470379
	286	1	8.71820109115678043565	8.71820109115678043565	8.71820109115678043565
	287	1	6.97456087292542470379	6.97456087292542470379	10.46184130938813794387
	288	1	8.71820109115678043565	8.71820109115678043565	12.20548152761949367573
	289	1	6.97456087292542470379	6.97456087292542470379	13.94912174585084940759
	290	1	8.71820109115678043565	8.71820109115678043565	15.69276196408220513945
	291	1	6.97456087292542470379	6.97456087292542470379	17.43640218231356087131
	292	1	8.71820109115678043565	8.71820109115678043565	19.18004240054491660317
	293	1	6.97456087292542470379	6.97456087292542470379	20.92368261877627588774
	294	1	8.71820109115678043565	8.71820109115678043565	22.66732283700763161960
	295	1	6.97456087292542470379	6.97456087292542470379	24.41096305523898735146
	296	1	8.71820109115678043565	8.71820109115678043565	26.15460327347034308332
	297	1	6.97456087292542470379	6.97456087292542470379	27.89824349170169881518
	298	1	8.71820109115678043565	8.71820109115678043565	29.64188370993305454704
	299	1	6.97456087292542470379	6.97456087292542470379	31.38552392816441027890
	300	1	8.71820109115678043565	8.71820109115678043565	33.12916414639576601076
	301	1	6.97456087292542470379	10.46184130938813794387	0.00000000000000000000
	302	1	8.71820109115678043565	12.20548152761949367573	1.74364021823135617595
	303	1	6.97456087292542470379	10.46184130938813794387	3.48728043646271235190
	304	1	8.71820109115678043565	12.20548152761949367573	5.23092065469406897193
	305	1	6.97456087292542470379	10.46184130938813794387	6.97456087292542470379
	306	1	8.71820109115678043565	12.20548152761949367573	8.71820109115678043565
	307	1	6.97456087292542470379	10.46184130938813794387	10.46184130938813794387
	308	1	8.71820109115678043565	12.20548152761949367573	12.20548152761949367573
	309	1	6.97456087292542470379	10.46184130938813794387	13.94912174585084940759
	310	1	8.71820109115678043565	12.20548152761949367573	15.69276196408220513945
	311	1	6.97456087292542470379	10.46184130938813794387	17.43640218231356087131
	312	1	8.71820109115678043565	12.20548152761949367573	19.18004240054491660317
	313	1	6.97456087292542470379	10.46184130938813794387	20.92368261877627588774
	314	1	8.71820109115678043565	12.20548152761949367573	22.66732283700763161960
	315	1	6.97456087292542470379	10.46184130938813794387	24.41096305523898735146
	316	1	8.71820109115678043565	12.20548152761949367573	26.15460327347034308332
	317	1	6.97456087292542470379	10.46184130938813794387	27.89824349170169881518
	318	1	8.71820109115678043565	12.20548152761949367573	29.64188370993305454704
	319	1	6.97456087292542470379	10.46184130938813794387	31.38552392816441027890
	320	1	8.71820109115678043565	12.20548152761949367573	33.12916414639576601076
	321	1	6.97456087292542470379	13.94912174585084940759	0.00000000000000000000
	322	1	8.71820109115678043565	15.69276196408220513945	1.74364021823135617595
	323	1	6.97456087292542470379	13.94912174585084940759	3.48728043646271235190
	324	1	8.71820109115678043565	15.69276196408220513945	5.23092065469406897193
	325	1	6.97456087292542470379	13.94912174585084940759	6.97456087292542470379
	326	1	8.71820109115678043565	15.69276196408220513945	8.71820109115678043565
	327	1	6.97456087292542470379	13.94912174585084940759	10.46184130938813794387
	328	1	8.71820109115678043565	15.69276196408220513945	12.20548152761949367573
	329	1	6.97456087292542470379	13.94912174585084940759	13.94912174585084940759
	330	1	8.71820109115678043565	15.69276196408220513945	15.69276196408220513945
	331	1	6.97456087292542470379	13.94912174585084940759	17.43640218231356087131
	332	1	8.71820109115678043565	15.69276196408220513945	19.18004240054491660317
	333	1	6.97456087292542470379	13.94912174585084940759	20.92368261877627588774
	334	1	8.71820109115678043565	15.69276196408220513945	22.66732283700763161960
	335	1	6.97456087292542470379	13.94912174585084940759	24.41096305523898735146
	336	1	8.71820109115678043565	15.69276196408220513945	26.15460327347034308332
	337	1	6.97456087292542470379	13.94912174585084940759	27.89824349170169881518
	338	1	8.71820109115678043565	15.69276196408220513945	29.64188370993305454704
	339	1	6.97456087292542470379	13.94912174585084940759	31.38552392816441027890
	340	1	8.71820109115678043565	15.69276196408220513945	33.12916414639576601076
	341	1	6.97456087292542470379	17.43640218231356087131	0.00000000000000000000
	342	1	8.71820109115678043565	19.18004240054491660317	1.74364021823135617595
	343	1	6.97456087292542470379	17.43640218231356087131	3.48728043646271235190
	344	1	8.71820109115678043565	19.18004240054491660317	5.23092065469406897193
	345	1	6.97456087292542470379	17.43640218231356087131	6.97456087292542470379
	346	1	8.71820109115678043565	19.18004240054491660317	8.71820109115678043565
	347	1	6.97456087292542470379	17.43640218231356087131	10.46184130938813794387
	348	1	8.71820109115678043565	19.18004240054491660317	12.20548152761949367573
	349	1	6.97456087292542470379	17.43640218231356087131	13.94912174585084940759
	350	1	8.71820109115678043565	19.18004240054491660317	15.69276196408220513945
	351	1	6.97456087292542470379	17.43640218231356087131	17.43640218231356087131
	352	1	8.71820109115678043565	19.18004240054491660317	19.18004240054491660317
	353	1	6.97456087292542470379	17.43640218231356087131	20.92368261877627588774
	354	1	8.71820109115678043565	19.18004240054491660317	22.66732283700763161960
	355	1	6.97456087292542470379	17.43640218231356087131	24.41096305523898735146
	356	1	8.71820109115678043565	19.18004240054491660317	26.15460327347034308332
	357	1	6.97456087292542470379	17.43640218231356087131	27.89824349170169881518
	358	1	8.71820109115678043565	19.18004240054491660317	29.64188370993305454704
	359	1	6.97456087292542470379	17.43640218231356087131	31.38552392816441027890
	360	1	8.71820109115678043565	19.18004240054491660317	33.12916414639576601076
	361	1	10.46184130938813794387	0.00000000000000000000	0.00000000000000000000
	362	1	12.20548152761949367573	1.74364021823135617595	1.74364021823135617595
	363	1	10.46184130938813794387	0.00000000000000000000	3.48728043646271235190
	364	1	12.20548152761949367573	1.74364021823135617595	5.23092065469406897193
	365	1	10.46184130938813794387	0.00000000000000000000	6.97456087292542470379
	366	1	12.20548152761949367573	1.74364021823135617595	8.71820109115678043565
	367	1	10.46184130938813794387	0.00000000000000000000	10.46184130938813794387
	368	1	12.20548152761949367573	1.74364021823135617595	12.20548152761949367573
	369	1	10.46184130938813794387	0.00000000000000000000	13.94912174585084940759
	370	1	12.20548152761949367573	1.74364021823135617595	15.69276196408220513945
	371	1	10.46184130938813794387	0.00000000000000000000	17.43640218231356087131
	372	1	12.20548152761949367573	1.74364021823135617595	19.18004240054491660317
	373	1	10.46184130938813794387	0.00000000000000000000	20.92368261877627588774
	374	1	12.20548152761949367573	1.74364021823135617595	22.66732283700763161960
	375	1	10.46184130938813794387	0.00000000000000000000	24.41096305523898735146
	376	1	12.20548152761949367573	1.74364021823135617595	26.15460327347034308332
	377	1	10.46184130938813794387	0.00000000000000000000	27.89824349170169881518
	378	1	12.20548152761949367573	1.74364021823135617595	29.64188370993305454704
	379	1	10.46184130938813794387	0.00000000000000000000	31.38552392816441027890
	380	1	12.20548152761949367573	1.74364021823135617595	33.12916414639576601076
	381	1	10.46184130938813794387	3.48728043646271235190	0.00000000000000000000
	382	1	12.20548152761949367573	5.23092065469406897193	1.74364021823135617595
	383	1	10.46184130938813794387	3.48728043646271235190	3.48728043646271235190
	384	1	12.20548152761949367573	5.23092065469406897193	5.23092065469406897193
	385	1	10.46184130938813794387	3.48728043646271235190	6.97456087292542470379
	386	1	12.20548152761949367573	5.23092065469406897193	8.71820109115678043565
	387	1	10.46184130938813794387	3.48728043646271235190	10.46184130938813794387