 
 500 atoms 
 
 1 atom types
 0.00000000000000000000 18.06657979081537135357 xlo xhi
 0.00000000000000000000 18.06672432287557228392 ylo yhi
 0.00000000000000000000 18.06614619694725476506 zlo zhi
 0.00000000000000110627 0.00000000000000110627 0.14453148207929431002 xy xz yz
 
 Atoms 
 
	1	1	0.00000000000000000000	0.00000000000000000000	0.00000000000000000000
	2	1	1.80665797908153713536	1.80664352599114130804	-0.00722651629206547304
	3	1	1.80665797908153713536	0.00722657410396486573	1.80661461992597294213
	4	1	0.00000000000000022037	1.81387010009510607489	1.79938810363390766511
	5	1	0.00000000000000022037	0.01445314820792973146	3.61322923985194588425
	6	1	1.80665797908153735740	1.82109667419907106378	3.60600272355988060724
	7	1	1.80665797908153735740	0.02167972231189459545	5.41984385977791927047
	8	1	0.00000000000000044074	1.82832324830303583063	5.41261734348585310528
	9	1	0.00000000000000044074	0.02890629641585946291	7.22645847970389176851
	10	1	1.80665797908153757945	1.83554982240700081952	7.21923196341182649149
	11	1	1.80665797908153757945	0.03613287051982432690	9.03307309962986515472
	12	1	0.00000000000000066112	1.84277639651096558637	9.02584658333779898953
	13	1	0.00000000000000066112	0.04335944462378919090	10.83968771955583854094
	14	1	1.80665797908153780149	1.85000297061493057527	10.83246120326377237575
	15	1	1.80665797908153780149	0.05058601872775406183	12.64630233948181192716
	16	1	0.00000000000000088149	1.85722954471889534211	12.63907582318974576197
	17	1	0.00000000000000088149	0.05781259283171892582	14.45291695940778353702
	18	1	1.80665797908153802354	1.86445611882286033101	14.44569044311571914818
	19	1	1.80665797908153802354	0.06503916693568377594	16.25953157933375692323
	20	1	0.00000000000000110186	1.87168269292682509786	16.25230506304168898168
	21	1	0.00000000000000022037	3.61328705198228261608	-0.01445303258413094608
	22	1	1.80665797908153735740	5.41993057797342370208	-0.02167954887619641738
	23	1	1.80665797908153735740	3.62051362608624760497	1.79216158734184216605
	24	1	0.00000000000000044074	5.42715715207738824688	1.78493507104977666700
	25	1	0.00000000000000044074	3.62774020019021214978	3.59877620726781533023
	26	1	1.80665797908153757945	5.43438372618135367986	3.59154969097574960912
	27	1	1.80665797908153757945	3.63496677429417713867	5.40539082719378782826
	28	1	0.00000000000000066112	5.44161030028531822467	5.39816431090172255125
	29	1	0.00000000000000066112	3.64219334839814212756	7.21200544711976121448
	30	1	1.80665797908153780149	5.44883687438928276947	7.20477893082769593747
	31	1	1.80665797908153780149	3.64941992250210711646	9.01862006704573282434
	32	1	0.00000000000000088149	5.45606344849324820245	9.01139355075366843550
	33	1	0.00000000000000088149	3.65664649660607166126	10.82523468697170621056
	34	1	1.80665797908153802354	5.46329002259721274726	10.81800817067964182172
	35	1	1.80665797908153802354	3.66387307071003665015	12.63184930689767959677
	36	1	0.00000000000000110186	5.47051659670117818024	12.62462279060561520794
	37	1	0.00000000000000110186	3.67109964481400163905	14.43846392682365298299
	38	1	1.80665797908153824558	5.47774317080514272504	14.43123741053158859415
	39	1	1.80665797908153824558	3.67832621891796618385	16.24507854674962459285
	40	1	0.00000000000000132223	5.48496974490910726985	16.23785203045756020401
	41	1	0.00000000000000044074	7.22657410396456523216	-0.02890606516826189215
	42	1	1.80665797908153757945	9.03321762995570587407	-0.03613258146032736345
	43	1	1.80665797908153757945	7.23380067806852977697	1.77770855475771116794
	44	1	0.00000000000000066112	9.04044420405967130705	1.77048203846564566888
	45	1	0.00000000000000066112	7.24102725217249520995	3.58432317468368433211
	46	1	1.80665797908153780149	9.04767077816363496368	3.57709665839161861101
	47	1	1.80665797908153780149	7.24825382627645975475	5.39093779460965727424
	48	1	0.00000000000000088149	9.05489735226760039666	5.38371127831759110904
	49	1	0.00000000000000088149	7.25548040038042429956	7.19755241453563066045
	50	1	1.80665797908153802354	9.06212392637156582964	7.19032589824356449526
	51	1	1.80665797908153802354	7.26270697448438973254	9.00416703446160227031
	52	1	0.00000000000000110186	9.06935050047552948627	8.99694051816953788148
	53	1	0.00000000000000110186	7.26993354858835427734	10.81078165438757565653
	54	1	1.80665797908153824558	9.07657707457949491925	10.80355513809551126769
	55	1	1.80665797908153824558	7.27716012269231971032	12.61739627431354904274
	56	1	0.00000000000000132223	9.08380364868346035223	12.61016975802148287755
	57	1	0.00000000000000132223	7.28438669679628425513	14.42401089423952242896
	58	1	1.80665797908153846763	9.09103022278742400886	14.41678437794745626377
	59	1	1.80665797908153846763	7.29161327090024879993	16.23062551416549226246
	60	1	0.00000000000000154260	9.09825679689138944184	16.22339899787342787363
	61	1	0.00000000000000066112	10.83986115594684740415	-0.04335909775239283476
	62	1	1.80665797908153780149	12.64650468193798893424	-0.05058561404445831300
	63	1	1.80665797908153780149	10.84708773005081283713	1.76325552217358016982
	64	1	0.00000000000000088149	12.65373125604195436722	1.75602900588151467076
	65	1	0.00000000000000088149	10.85431430415477649376	3.56987014209955333399
	66	1	1.80665797908153802354	12.66095783014591802385	3.56264362580748761289
	67	1	1.80665797908153802354	10.86154087825874192674	5.37648476202552583203
	68	1	0.00000000000000110186	12.66818440424988345683	5.36925824573346055502
	69	1	0.00000000000000110186	10.86876745236270735973	7.18309938195149921825
	70	1	1.80665797908153824558	12.67541097835384888981	7.17587286565943394123
	71	1	1.80665797908153824558	10.87599402646667101635	8.98971400187747171628
	72	1	0.00000000000000132223	12.68263755245781254644	8.98248748558540555109
	73	1	0.00000000000000132223	10.88322060057063644933	10.79632862180344510250
	74	1	1.80665797908153846763	12.68986412656177797942	10.78910210551137893731
	75	1	1.80665797908153846763	10.89044717467460188232	12.60294324172941848872
	76	1	0.00000000000000154260	12.69709070066574341240	12.59571672543735232352
	77	1	0.00000000000000154260	10.89767374877856553894	14.40955786165539187493
	78	1	1.80665797908153868967	12.70431727476970706903	14.40233134536332570974
	79	1	1.80665797908153868967	10.90490032288253097192	16.21617248158136348479
	80	1	0.00000000000000176298	12.71154384887367250201	16.20894596528929909596
	81	1	0.00000000000000088149	14.45314820792913046432	-0.05781213033652378430
	82	1	1.80665797908153802354	16.25979173392027021805	-0.06503864662858925560
	83	1	1.80665797908153802354	14.46037478203309589730	1.74880248958944917170
	84	1	0.00000000000000110186	16.26701830802423387468	1.74157597329738389469
	85	1	0.00000000000000110186	14.46760135613705955393	3.55541710951542233587
	86	1	1.80665797908153824558	16.27424488212820108402	3.54819059322335661477
	87	1	1.80665797908153824558	14.47482793024102498691	5.36203172944139527800
	88	1	0.00000000000000132223	16.28147145623216474064	5.35480521314933000099
	89	1	0.00000000000000132223	14.48205450434499041990	7.16864634936736866422
	90	1	1.80665797908153846763	16.28869803033612839727	7.16141983307530249903
	91	1	1.80665797908153846763	14.48928107844895407652	8.97526096929334116226
	92	1	0.00000000000000154260	16.29592460444009560661	8.96803445300127499706
	93	1	0.00000000000000154260	14.49650765255291950950	10.78187558921931454847
	94	1	1.80665797908153868967	16.30315117854405926323	10.77464907292724838328
	95	1	1.80665797908153868967	14.50373422665688494249	12.58849020914528793469
	96	1	0.00000000000000176298	16.31037775264802291986	12.58126369285322176950
	97	1	0.00000000000000176298	14.51096080076084859911	14.39510482907126132091
	98	1	1.80665797908153891171	16.31760432675199012920	14.38787831277919515571
	99	1	1.80665797908153891171	14.51818737486481403209	16.20171944899723115441
	100	1	0.00000000000000198335	16.32483090085595378582	16.19449293270516676557
	101	1	3.61331595816307427071	0.00000000000000000000	0.00000000000000000000
	102	1	5.41997393724461140607	1.80664352599114130804	-0.00722651629206547304
	103	1	5.41997393724461140607	0.00722657410396486573	1.80661461992597294213
	104	1	3.61331595816307427071	1.81387010009510607489	1.79938810363390766511
	105	1	3.61331595816307427071	0.01445314820792973146	3.61322923985194588425
	106	1	5.41997393724461140607	1.82109667419907106378	3.60600272355988060724
	107	1	5.41997393724461140607	0.02167972231189459545	5.41984385977791927047
	108	1	3.61331595816307471480	1.82832324830303583063	5.41261734348585310528
	109	1	3.61331595816307471480	0.02890629641585946291	7.22645847970389176851
	110	1	5.41997393724461140607	1.83554982240700081952	7.21923196341182649149
	111	1	5.41997393724461229425	0.03613287051982432690	9.03307309962986515472
	112	1	3.61331595816307471480	1.84277639651096558637	9.02584658333779898953
	113	1	3.61331595816307471480	0.04335944462378919090	10.83968771955583854094
	114	1	5.41997393724461229425	1.85000297061493057527	10.83246120326377237575
	115	1	5.41997393724461229425	0.05058601872775406183	12.64630233948181192716
	116	1	3.61331595816307515889	1.85722954471889534211	12.63907582318974576197
	117	1	3.61331595816307515889	0.05781259283171892582	14.45291695940778353702
	118	1	5.41997393724461229425	1.86445611882286033101	14.44569044311571914818
	119	1	5.41997393724461229425	0.06503916693568377594	16.25953157933375692323
	120	1	3.61331595816307515889	1.87168269292682509786	16.25230506304168898168
	121	1	3.61331595816307427071	3.61328705198228261608	-0.01445303258413094608
	122	1	5.41997393724461140607	5.41993057797342370208	-0.02167954887619641738
	123	1	5.41997393724461140607	3.62051362608624760497	1.79216158734184216605
	124	1	3.61331595816307471480	5.42715715207738824688	1.78493507104977666700
	125	1	3.61331595816307427071	3.62774020019021214978	3.59877620726781533023
	126	1	5.41997393724461140607	5.43438372618135367986	3.59154969097574960912
	127	1	5.41997393724461140607	3.63496677429417713867	5.40539082719378782826
	128	1	3.61331595816307515889	5.44161030028531822467	5.39816431090172255125
	129	1	3.61331595816307471480	3.64219334839814212756	7.21200544711976121448
	130	1	5.41997393724461140607	5.44883687438928276947	7.20477893082769593747
	131	1	5.41997393724461229425	3.64941992250210711646	9.01862006704573282434
	132	1	3.61331595816307515889	5.45606344849324820245	9.01139355075366843550
	133	1	3.61331595816307471480	3.65664649660607166126	10.82523468697170621056
	134	1	5.41997393724461229425	5.46329002259721274726	10.81800817067964182172
	135	1	5.41997393724461229425	3.66387307071003665015	12.63184930689767959677
	136	1	3.61331595816307560298	5.47051659670117818024	12.62462279060561520794
	137	1	3.61331595816307515889	3.67109964481400163905	14.43846392682365298299
	138	1	5.41997393724461229425	5.47774317080514272504	14.43123741053158859415
	139	1	5.41997393724461229425	3.67832621891796618385	16.24507854674962459285
	140	1	3.61331595816307560298	5.48496974490910726985	16.23785203045756020401
	141	1	3.61331595816307471480	7.22657410396456523216	-0.02890606516826189215
	142	1	5.41997393724461229425	9.03321762995570587407	-0.03613258146032736345
	143	1	5.41997393724461140607	7.23380067806852977697	1.77770855475771116794
	144	1	3.61331595816307471480	9.04044420405967130705	1.77048203846564566888
	145	1	3.61331595816307471480	7.24102725217249520995	3.58432317468368433211
	146	1	5.41997393724461229425	9.04767077816363496368	3.57709665839161861101
	147	1	5.41997393724461140607	7.24825382627645975475	5.39093779460965727424
	148	1	3.61331595816307515889	9.05489735226760039666	5.38371127831759110904
	149	1	3.61331595816307515889	7.25548040038042429956	7.19755241453563066045
	150	1	5.41997393724461229425	9.06212392637156582964	7.19032589824356449526
	151	1	5.41997393724461229425	7.26270697448438973254	9.00416703446160227031
	152	1	3.61331595816307515889	9.06935050047552948627	8.99694051816953788148
	153	1	3.61331595816307515889	7.26993354858835427734	10.81078165438757565653
	154	1	5.41997393724461318243	9.07657707457949491925	10.80355513809551126769
	155	1	5.41997393724461229425	7.27716012269231971032	12.61739627431354904274
	156	1	3.61331595816307560298	9.08380364868346035223	12.61016975802148287755
	157	1	3.61331595816307560298	7.28438669679628425513	14.42401089423952242896
	158	1	5.41997393724461318243	9.09103022278742400886	14.41678437794745626377
	159	1	5.41997393724461229425	7.29161327090024879993	16.23062551416549226246
	160	1	3.61331595816307560298	9.09825679689138944184	16.22339899787342787363
	161	1	3.61331595816307471480	10.83986115594684740415	-0.04335909775239283476
	162	1	5.41997393724461229425	12.64650468193798893424	-0.05058561404445831300
	163	1	5.41997393724461229425	10.84708773005081283713	1.76325552217358016982
	164	1	3.61331595816307515889	12.65373125604195436722	1.75602900588151467076
	165	1	3.61331595816307471480	10.85431430415477649376	3.56987014209955333399
	166	1	5.41997393724461229425	12.66095783014591802385	3.56264362580748761289
	167	1	5.41997393724461229425	10.86154087825874192674	5.37648476202552583203
	168	1	3.61331595816307560298	12.66818440424988345683	5.36925824573346055502
	169	1	3.61331595816307515889	10.86876745236270735973	7.18309938195149921825
	170	1	5.41997393724461229425	12.67541097835384888981	7.17587286565943394123
	171	1	5.41997393724461318243	10.87599402646667101635	8.98971400187747171628
	172	1	3.61331595816307560298	12.68263755245781254644	8.98248748558540555109
	173	1	3.61331595816307515889	10.88322060057063644933	10.79632862180344510250
	174	1	5.41997393724461318243	12.68986412656177797942	10.78910210551137893731
	175	1	5.41997393724461318243	10.89044717467460188232	12.60294324172941848872
	176	1	3.61331595816307604707	12.69709070066574341240	12.59571672543735232352
	177	1	3.61331595816307560298	10.89767374877856553894	14.40955786165539187493
	178	1	5.41997393724461318243	12.70431727476970706903	14.40233134536332570974
	179	1	5.41997393724461318243	10.90490032288253097192	16.21617248158136348479
	180	1	3.61331595816307604707	12.71154384887367250201	16.20894596528929909596
	181	1	3.61331595816307515889	14.45314820792913046432	-0.05781213033652378430
	182	1	5.41997393724461229425	16.25979173392027021805	-0.06503864662858925560
	183	1	5.41997393724461229425	14.46037478203309589730	1.74880248958944917170
	184	1	3.61331595816307515889	16.26701830802423387468	1.74157597329738389469
	185	1	3.61331595816307515889	14.46760135613705955393	3.55541710951542233587
	186	1	5.41997393724461229425	16.27424488212820108402	3.54819059322335661477
	187	1	5.41997393724461229425	14.47482793024102498691	5.36203172944139527800
	188	1	3.61331595816307560298	16.28147145623216474064	5.35480521314933000099
	189	1	3.61331595816307560298	14.48205450434499041990	7.16864634936736866422
	190	1	5.41997393724461229425	16.28869803033612839727	7.16141983307530249903
	191	1	5.41997393724461318243	14.48928107844895407652	8.97526096929334116226
	192	1	3.61331595816307560298	16.29592460444009560661	8.96803445300127499706
	193	1	3.61331595816307560298	14.49650765255291950950	10.78187558921931454847
	194	1	5.41997393724461318243	16.30315117854405926323	10.77464907292724838328
	195	1	5.41997393724461318243	14.50373422665688494249	12.58849020914528793469
	196	1	3.61331595816307604707	16.31037775264802291986	12.58126369285322176950
	197	1	3.61331595816307604707	14.51096080076084859911	14.39510482907126132091
	198	1	5.41997393724461318243	16.31760432675199012920	14.38787831277919515571
	199	1	5.41997393724461318243	14.51818737486481403209	16.20171944899723115441
	200	1	3.61331595816307604707	16.32483090085595378582	16.19449293270516676557
	201	1	7.22663191632614854143	0.00000000000000000000	0.00000000000000000000
	202	1	9.03328989540768567679	1.80664352599114130804	-0.00722651629206547304
	203	1	9.03328989540768567679	0.00722657410396486573	1.80661461992597294213
	204	1	7.22663191632614854143	1.81387010009510607489	1.79938810363390766511
	205	1	7.22663191632614854143	0.01445314820792973146	3.61322923985194588425
	206	1	9.03328989540768567679	1.82109667419907106378	3.60600272355988060724
	207	1	9.03328989540768567679	0.02167972231189459545	5.41984385977791927047
	208	1	7.22663191632614854143	1.82832324830303583063	5.41261734348585310528
	209	1	7.22663191632614854143	0.02890629641585946291	7.22645847970389176851
	210	1	9.03328989540768567679	1.83554982240700081952	7.21923196341182649149
	211	1	9.03328989540768567679	0.03613287051982432690	9.03307309962986515472
	212	1	7.22663191632614942961	1.84277639651096558637	9.02584658333779898953
	213	1	7.22663191632614942961	0.04335944462378919090	10.83968771955583854094
	214	1	9.03328989540768567679	1.85000297061493057527	10.83246120326377237575
	215	1	9.03328989540768567679	0.05058601872775406183	12.64630233948181192716
	216	1	7.22663191632614942961	1.85722954471889534211	12.63907582318974576197
	217	1	7.22663191632614942961	0.05781259283171892582	14.45291695940778353702
	218	1	9.03328989540768567679	1.86445611882286033101	14.44569044311571914818
	219	1	9.03328989540768745314	0.06503916693568377594	16.25953157933375692323
	220	1	7.22663191632614942961	1.87168269292682509786	16.25230506304168898168
	221	1	7.22663191632614854143	3.61328705198228261608	-0.01445303258413094608
	222	1	9.03328989540768567679	5.41993057797342370208	-0.02167954887619641738
	223	1	9.03328989540768567679	3.62051362608624760497	1.79216158734184216605
	224	1	7.22663191632614854143	5.42715715207738824688	1.78493507104977666700
	225	1	7.22663191632614854143	3.62774020019021214978	3.59877620726781533023
	226	1	9.03328989540768567679	5.43438372618135367986	3.59154969097574960912
	227	1	9.03328989540768567679	3.63496677429417713867	5.40539082719378782826
	228	1	7.22663191632614854143	5.44161030028531822467	5.39816431090172255125
	229	1	7.22663191632614854143	3.64219334839814212756	7.21200544711976121448
	230	1	9.03328989540768567679	5.44883687438928276947	7.20477893082769593747
	231	1	9.03328989540768567679	3.64941992250210711646	9.01862006704573282434
	232	1	7.22663191632614942961	5.45606344849324820245	9.01139355075366843550
	233	1	7.22663191632614942961	3.65664649660607166126	10.82523468697170621056
	234	1	9.03328989540768567679	5.46329002259721274726	10.81800817067964182172
	235	1	9.03328989540768567679	3.66387307071003665015	12.63184930689767959677
	236	1	7.22663191632614942961	5.47051659670117818024	12.62462279060561520794
	237	1	7.22663191632614942961	3.67109964481400163905	14.43846392682365298299
	238	1	9.03328989540768567679	5.47774317080514272504	14.43123741053158859415
	239	1	9.03328989540768745314	3.67832621891796618385	16.24507854674962459285
	240	1	7.22663191632614942961	5.48496974490910726985	16.23785203045756020401
	241	1	7.22663191632614854143	7.22657410396456523216	-0.02890606516826189215
	242	1	9.03328989540768567679	9.03321762995570587407	-0.03613258146032736345
	243	1	9.03328989540768567679	7.23380067806852977697	1.77770855475771116794
	244	1	7.22663191632614942961	9.04044420405967130705	1.77048203846564566888
	245	1	7.22663191632614854143	7.24102725217249520995	3.58432317468368433211
	246	1	9.03328989540768567679	9.04767077816363496368	3.57709665839161861101
	247	1	9.03328989540768567679	7.24825382627645975475	5.39093779460965727424
	248	1	7.22663191632614942961	9.05489735226760039666	5.38371127831759110904
	249	1	7.22663191632614854143	7.25548040038042429956	7.19755241453563066045
	250	1	9.03328989540768567679	9.06212392637156582964	7.19032589824356449526
	251	1	9.03328989540768567679	7.26270697448438973254	9.00416703446160227031
	252	1	7.22663191632615031779	9.06935050047552948627	8.99694051816953788148
	253	1	7.22663191632614942961	7.26993354858835427734	10.81078165438757565653
	254	1	9.03328989540768567679	9.07657707457949491925	10.80355513809551126769
	255	1	9.03328989540768567679	7.27716012269231971032	12.61739627431354904274
	256	1	7.22663191632615031779	9.08380364868346035223	12.61016975802148287755
	257	1	7.22663191632614942961	7.28438669679628425513	14.42401089423952242896
	258	1	9.03328989540768567679	9.09103022278742400886	14.41678437794745626377
	259	1	9.03328989540768745314	7.29161327090024879993	16.23062551416549226246
	260	1	7.22663191632615031779	9.09825679689138944184	16.22339899787342787363
	261	1	7.22663191632614942961	10.83986115594684740415	-0.04335909775239283476
	262	1	9.03328989540768567679	12.64650468193798893424	-0.05058561404445831300
	263	1	9.03328989540768567679	10.84708773005081283713	1.76325552217358016982
	264	1	7.22663191632614942961	12.65373125604195436722	1.75602900588151467076
	265	1	7.22663191632614942961	10.85431430415477649376	3.56987014209955333399
	266	1	9.03328989540768567679	12.66095783014591802385	3.56264362580748761289
	267	1	9.03328989540768567679	10.86154087825874192674	5.37648476202552583203
	268	1	7.22663191632614942961	12.66818440424988345683	5.36925824573346055502
	269	1	7.22663191632614942961	10.86876745236270735973	7.18309938195149921825
	270	1	9.03328989540768567679	12.67541097835384888981	7.17587286565943394123
	271	1	9.03328989540768567679	10.87599402646667101635	8.98971400187747171628
	272	1	7.22663191632615031779	12.68263755245781254644	8.98248748558540555109
	273	1	7.22663191632615031779	10.88322060057063644933	10.79632862180344510250
	274	1	9.03328989540768567679	12.68986412656177797942	10.78910210551137893731
	275	1	9.03328989540768567679	10.89044717467460188232	12.60294324172941848872
	276	1	7.22663191632615031779	12.69709070066574341240	12.59571672543735232352
	277	1	7.22663191632615031779	10.89767374877856553894	14.40955786165539187493
	278	1	9.03328989540768567679	12.70431727476970706903	14.40233134536332570974
	279	1	9.03328989540768745314	10.90490032288253097192	16.21617248158136348479
	280	1	7.22663191632615031779	12.71154384887367250201	16.20894596528929909596
	281	1	7.22663191632614942961	14.45314820792913046432	-0.05781213033652378430
	282	1	9.03328989540768745314	16.25979173392027021805	-0.06503864662858925560
	283	1	9.03328989540768567679	14.46037478203309589730	1.74880248958944917170
	284	1	7.22663191632614942961	16.26701830802423387468	1.74157597329738389469
	285	1	7.22663191632614942961	14.46760135613705955393	3.55541710951542233587
	286	1	9.03328989540768745314	16.27424488212820108402	3.54819059322335661477
	287	1	9.03328989540768567679	14.47482793024102498691	5.36203172944139527800
	288	1	7.22663191632614942961	16.28147145623216474064	5.35480521314933000099
	289	1	7.22663191632614942961	14.48205450434499041990	7.16864634936736866422
	290	1	9.03328989540768745314	16.28869803033612839727	7.16141983307530249903
	291	1	9.03328989540768567679	14.48928107844895407652	8.97526096929334116226
	292	1	7.22663191632615031779	16.29592460444009560661	8.96803445300127499706
	293	1	7.22663191632615031779	14.49650765255291950950	10.78187558921931454847
	294	1	9.03328989540768745314	16.30315117854405926323	10.77464907292724838328
	295	1	9.03328989540768567679	14.50373422665688494249	12.58849020914528793469
	296	1	7.22663191632615031779	16.31037775264802291986	12.58126369285322176950
	297	1	7.22663191632615031779	14.51096080076084859911	14.39510482907126132091
	298	1	9.03328989540768745314	16.31760432675199012920	14.38787831277919515571
	299	1	9.03328989540768745314	14.51818737486481403209	16.20171944899723115441
	300	1	7.22663191632615031779	16.32483090085595378582	16.19449293270516676557
	301	1	10.83994787448922281214	0.00000000000000000000	0.00000000000000000000
	302	1	12.64660585357075994750	1.80664352599114130804	-0.00722651629206547304
	303	1	12.64660585357075994750	0.00722657410396486573	1.80661461992597294213
	304	1	10.83994787448922281214	1.81387010009510607489	1.79938810363390766511
	305	1	10.83994787448922281214	0.01445314820792973146	3.61322923985194588425
	306	1	12.64660585357075994750	1.82109667419907106378	3.60600272355988060724
	307	1	12.64660585357075994750	0.02167972231189459545	5.41984385977791927047
	308	1	10.83994787448922281214	1.82832324830303583063	5.41261734348585310528
	309	1	10.83994787448922281214	0.02890629641585946291	7.22645847970389176851
	310	1	12.64660585357075994750	1.83554982240700081952	7.21923196341182649149
	311	1	12.64660585357075994750	0.03613287051982432690	9.03307309962986515472
	312	1	10.83994787448922281214	1.84277639651096558637	9.02584658333779898953
	313	1	10.83994787448922281214	0.04335944462378919090	10.83968771955583854094
	314	1	12.64660585357075994750	1.85000297061493057527	10.83246120326377237575
	315	1	12.64660585357075994750	0.05058601872775406183	12.64630233948181192716
	316	1	10.83994787448922281214	1.85722954471889534211	12.63907582318974576197
	317	1	10.83994787448922281214	0.05781259283171892582	14.45291695940778353702
	318	1	12.64660585357075994750	1.86445611882286033101	14.44569044311571914818
	319	1	12.64660585357076172386	0.06503916693568377594	16.25953157933375692323
	320	1	10.83994787448922458850	1.87168269292682509786	16.25230506304168898168
	321	1	10.83994787448922281214	3.61328705198228261608	-0.01445303258413094608
	322	1	12.64660585357075994750	5.41993057797342370208	-0.02167954887619641738
	323	1	12.64660585357075994750	3.62051362608624760497	1.79216158734184216605
	324	1	10.83994787448922281214	5.42715715207738824688	1.78493507104977666700
	325	1	10.83994787448922281214	3.62774020019021214978	3.59877620726781533023
	326	1	12.64660585357075994750	5.43438372618135367986	3.59154969097574960912
	327	1	12.64660585357075994750	3.63496677429417713867	5.40539082719378782826
	328	1	10.83994787448922281214	5.44161030028531822467	5.39816431090172255125
	329	1	10.83994787448922281214	3.64219334839814212756	7.21200544711976121448
	330	1	12.64660585357075994750	5.44883687438928276947	7.20477893082769593747
	331	1	12.64660585357075994750	3.64941992250210711646	9.01862006704573282434
	332	1	10.83994787448922281214	5.45606344849324820245	9.01139355075366843550
	333	1	10.83994787448922281214	3.65664649660607166126	10.82523468697170621056
	334	1	12.64660585357075994750	5.46329002259721274726	10.81800817067964182172
	335	1	12.64660585357075994750	3.66387307071003665015	12.63184930689767959677
	336	1	10.83994787448922281214	5.47051659670117818024	12.62462279060561520794
	337	1	10.83994787448922281214	3.67109964481400163905	14.43846392682365298299
	338	1	12.64660585357075994750	5.47774317080514272504	14.43123741053158859415
	339	1	12.64660585357076172386	3.67832621891796618385	16.24507854674962459285
	340	1	10.83994787448922458850	5.48496974490910726985	16.23785203045756020401
	341	1	10.83994787448922281214	7.22657410396456523216	-0.02890606516826189215
	342	1	12.64660585357075994750	9.03321762995570587407	-0.03613258146032736345
	343	1	12.64660585357075994750	7.23380067806852977697	1.77770855475771116794
	344	1	10.83994787448922281214	9.04044420405967130705	1.77048203846564566888
	345	1	10.83994787448922281214	7.24102725217249520995	3.58432317468368433211
	346	1	12.64660585357075994750	9.04767077816363496368	3.57709665839161861101
	347	1	12.64660585357075994750	7.24825382627645975475	5.39093779460965727424
	348	1	10.83994787448922281214	9.05489735226760039666	5.38371127831759110904
	349	1	10.83994787448922281214	7.25548040038042429956	7.19755241453563066045
	350	1	12.64660585357075994750	9.06212392637156582964	7.19032589824356449526
	351	1	12.64660585357075994750	7.26270697448438973254	9.00416703446160227031
	352	1	10.83994787448922281214	9.06935050047552948627	8.99694051816953788148
	353	1	10.83994787448922281214	7.26993354858835427734	10.81078165438757565653
	354	1	12.64660585357075994750	9.07657707457949491925	10.80355513809551126769
	355	1	12.64660585357075994750	7.27716012269231971032	12.61739627431354904274
	356	1	10.83994787448922281214	9.08380364868346035223	12.61016975802148287755
	357	1	10.83994787448922281214	7.28438669679628425513	14.42401089423952242896
	358	1	12.64660585357075994750	9.09103022278742400886	14.41678437794745626377
	359	1	12.64660585357076172386	7.29161327090024879993	16.23062551416549226246
	360	1	10.83994787448922458850	9.09825679689138944184	16.22339899787342787363
	361	1	10.83994787448922281214	10.83986115594684740415	-0.04335909775239283476
	362	1	12.64660585357075994750	12.64650468193798893424	-0.05058561404445831300
	363	1	12.64660585357075994750	10.84708773005081283713	1.76325552217358016982
	364	1	10.83994787448922281214	12.65373125604195436722	1.75602900588151467076
	365	1	10.83994787448922281214	10.85431430415477649376	3.56987014209955333399
	366	1	12.64660585357075994750	12.66095783014591802385	3.56264362580748761289
	367	1	12.64660585357075994750	10.86154087825874192674	5.37648476202552583203
	368	1	10.83994787448922281214	12.66818440424988345683	5.36925824573346055502
	369	1	10.83994787448922281214	10.86876745236270735973	7.18309938195149921825
	370	1	12.64660585357075994750	12.67541097835384888981	7.17587286565943394123
	371	1	12.64660585357075994750	10.87599402646667101635	8.98971400187747171628
	372	1	10.83994787448922281214	12.68263755245781254644	8.98248748558540555109
	373	1	10.83994787448922281214	10.88322060057063644933	10.79632862180344510250
	374	1	12.64660585357075994750	12.68986412656177797942	10.78910210551137893731
	375	1	12.64660585357075994750	10.89044717467460188232	12.60294324172941848872
	376	1	10.83994787448922281214	12.69709070066574341240	12.59571672543735232352
	377	1	10.83994787448922281214	10.89767374877856553894	14.40955786165539187493
	378	1	12.64660585357075994750	12.70431727476970706903	14.40233134536332570974
	379	1	12.64660585357076172386	10.90490032288253097192	16.21617248158136348479
	380	1	10.83994787448922458850	12.71154384887367250201	16.20894596528929909596
	381	1	10.83994787448922281214	14.45314820792913046432	-0.05781213033652378430
	382	1	12.64660585357076172386	16.25979173392027021805	-0.06503864662858925560
	383	1	12.64660585357075994750	14.46037478203309589730	1.74880248958944917170
	384	1	10.83994787448922458850	16.26701830802423387468	1.74157597329738389469
	385	1	10.83994787448922281214	14.46760135613705955393	3.55541710951542233587
	386	1	12.64660585357076172386	16.27424488212820108402	3.54819059322335661477