ITEM: TIMESTEP
0
ITEM: NUMBER OF ATOMS
500
ITEM: BOX BOUNDS xy xz yz pp pp pp
0 18.0666 1.10627e-15
0 18.2113 1.10627e-15
0 18.0661 0.144531
ITEM: ATOMS id type x y z 
1 1 0 0 0 
2 1 1.80666 1.95118 18.0589 
3 1 1.80666 18.074 1.80661 
4 1 2.20371e-16 1.81387 1.79939 
5 1 1.32664e-15 18.0812 3.61323 
6 1 1.80666 1.8211 3.606 
7 1 1.80666 18.0884 5.41984 
8 1 4.4074e-16 1.82832 5.41262 
9 1 1.54701e-15 18.0956 7.22646 
10 1 1.80666 1.83555 7.21923 
11 1 1.80666 18.1029 9.03307 
12 1 6.6112e-16 1.84278 9.02585 
13 1 1.76739e-15 18.1101 10.8397 
14 1 1.80666 1.85 10.8325 
15 1 1.80666 18.1173 12.6463 
16 1 8.8149e-16 1.85723 12.6391 
17 1 1.98776e-15 18.1245 14.4529 
18 1 1.80666 1.86446 14.4457 
19 1 1.80666 18.1318 16.2595 
20 1 1.10186e-15 1.87168 16.2523 
21 1 1.32664e-15 3.75782 18.0517 
22 1 1.80666 5.56446 18.0445 
23 1 1.80666 3.62051 1.79216 
24 1 4.40743e-16 5.42716 1.78494 
25 1 4.40742e-16 3.62774 3.59878 
26 1 1.80666 5.43438 3.59155 
27 1 1.80666 3.63497 5.40539 
28 1 6.6112e-16 5.44161 5.39816 
29 1 6.6112e-16 3.64219 7.21201 
30 1 1.80666 5.44884 7.20478 
31 1 1.80666 3.64942 9.01862 
32 1 8.8149e-16 5.45606 9.01139 
33 1 8.8149e-16 3.65665 10.8252 
34 1 1.80666 5.46329 10.818 
35 1 1.80666 3.66387 12.6318 
36 1 1.10186e-15 5.47052 12.6246 
37 1 1.10186e-15 3.6711 14.4385 
38 1 1.80666 5.47774 14.4312 
39 1 1.80666 3.67833 16.2451 
40 1 1.32223e-15 5.48497 16.2379 
41 1 1.54702e-15 7.37111 18.0372 
42 1 1.80666 9.17775 18.03 
43 1 1.80666 7.2338 1.77771 
44 1 6.6112e-16 9.04044 1.77048 
45 1 6.6112e-16 7.24103 3.58432 
46 1 1.80666 9.04767 3.5771 
47 1 1.80666 7.24825 5.39094 
48 1 8.8149e-16 9.0549 5.38371 
49 1 8.8149e-16 7.25548 7.19755 
50 1 1.80666 9.06212 7.19033 
51 1 1.80666 7.26271 9.00417 
52 1 1.10186e-15 9.06935 8.99694 
53 1 1.10186e-15 7.26993 10.8108 
54 1 1.80666 9.07658 10.8036 
55 1 1.80666 7.27716 12.6174 
56 1 1.32223e-15 9.0838 12.6102 
57 1 1.32223e-15 7.28439 14.424 
58 1 1.80666 9.09103 14.4168 
59 1 1.80666 7.29161 16.2306 
60 1 1.5426e-15 9.09826 16.2234 
61 1 1.76739e-15 10.9844 18.0228 
62 1 1.80666 12.791 18.0156 
63 1 1.80666 10.8471 1.76326 
64 1 8.8149e-16 12.6537 1.75603 
65 1 8.8149e-16 10.8543 3.56987 
66 1 1.80666 12.661 3.56264 
67 1 1.80666 10.8615 5.37648 
68 1 1.10186e-15 12.6682 5.36926 
69 1 1.10186e-15 10.8688 7.1831 
70 1 1.80666 12.6754 7.17587 
71 1 1.80666 10.876 8.98971 
72 1 1.32223e-15 12.6826 8.98249 
73 1 1.32223e-15 10.8832 10.7963 
74 1 1.80666 12.6899 10.7891 
75 1 1.80666 10.8904 12.6029 
76 1 1.5426e-15 12.6971 12.5957 
77 1 1.5426e-15 10.8977 14.4096 
78 1 1.80666 12.7043 14.4023 
79 1 1.80666 10.9049 16.2162 
80 1 1.76298e-15 12.7115 16.2089 
81 1 1.98776e-15 14.5977 18.0083 
82 1 1.80666 16.4043 18.0011 
83 1 1.80666 14.4604 1.7488 
84 1 1.10186e-15 16.267 1.74158 
85 1 1.10186e-15 14.4676 3.55542 
86 1 1.80666 16.2742 3.54819 
87 1 1.80666 14.4748 5.36203 
88 1 1.32223e-15 16.2815 5.35481 
89 1 1.32223e-15 14.4821 7.16865 
90 1 1.80666 16.2887 7.16142 
91 1 1.80666 14.4893 8.97526 
92 1 1.5426e-15 16.2959 8.96803 
93 1 1.5426e-15 14.4965 10.7819 
94 1 1.80666 16.3032 10.7746 
95 1 1.80666 14.5037 12.5885 
96 1 1.76298e-15 16.3104 12.5813 
97 1 1.76298e-15 14.511 14.3951 
98 1 1.80666 16.3176 14.3879 
99 1 1.80666 14.5182 16.2017 
100 1 1.98335e-15 16.3248 16.1945 
101 1 3.61332 0 0 
102 1 5.41997 1.95118 18.0589 
103 1 5.41997 18.074 1.80661 
104 1 3.61332 1.81387 1.79939 
105 1 3.61332 18.0812 3.61323 
106 1 5.41997 1.8211 3.606 
107 1 5.41997 18.0884 5.41984 
108 1 3.61332 1.82832 5.41262 
109 1 3.61332 18.0956 7.22646 
110 1 5.41997 1.83555 7.21923 
111 1 5.41997 18.1029 9.03307 
112 1 3.61332 1.84278 9.02585 
113 1 3.61332 18.1101 10.8397 
114 1 5.41997 1.85 10.8325 
115 1 5.41997 18.1173 12.6463 
116 1 3.61332 1.85723 12.6391 
117 1 3.61332 18.1245 14.4529 
118 1 5.41997 1.86446 14.4457 
119 1 5.41997 18.1318 16.2595 
120 1 3.61332 1.87168 16.2523 
121 1 3.61332 3.75782 18.0517 
122 1 5.41997 5.56446 18.0445 
123 1 5.41997 3.62051 1.79216 
124 1 3.61332 5.42716 1.78494 
125 1 3.61332 3.62774 3.59878 
126 1 5.41997 5.43438 3.59155 
127 1 5.41997 3.63497 5.40539 
128 1 3.61332 5.44161 5.39816 
129 1 3.61332 3.64219 7.21201 
130 1 5.41997 5.44884 7.20478 
131 1 5.41997 3.64942 9.01862 
132 1 3.61332 5.45606 9.01139 
133 1 3.61332 3.65665 10.8252 
134 1 5.41997 5.46329 10.818 
135 1 5.41997 3.66387 12.6318 
136 1 3.61332 5.47052 12.6246 
137 1 3.61332 3.6711 14.4385 
138 1 5.41997 5.47774 14.4312 
139 1 5.41997 3.67833 16.2451 
140 1 3.61332 5.48497 16.2379 
141 1 3.61332 7.37111 18.0372 
142 1 5.41997 9.17775 18.03 
143 1 5.41997 7.2338 1.77771 
144 1 3.61332 9.04044 1.77048 
145 1 3.61332 7.24103 3.58432 
146 1 5.41997 9.04767 3.5771 
147 1 5.41997 7.24825 5.39094 
148 1 3.61332 9.0549 5.38371 
149 1 3.61332 7.25548 7.19755 
150 1 5.41997 9.06212 7.19033 
151 1 5.41997 7.26271 9.00417 
152 1 3.61332 9.06935 8.99694 
153 1 3.61332 7.26993 10.8108 
154 1 5.41997 9.07658 10.8036 
155 1 5.41997 7.27716 12.6174 
156 1 3.61332 9.0838 12.6102 
157 1 3.61332 7.28439 14.424 
158 1 5.41997 9.09103 14.4168 
159 1 5.41997 7.29161 16.2306 
160 1 3.61332 9.09826 16.2234 
161 1 3.61332 10.9844 18.0228 
162 1 5.41997 12.791 18.0156 
163 1 5.41997 10.8471 1.76326 
164 1 3.61332 12.6537 1.75603 
165 1 3.61332 10.8543 3.56987 
166 1 5.41997 12.661 3.56264 
167 1 5.41997 10.8615 5.37648 
168 1 3.61332 12.6682 5.36926 
169 1 3.61332 10.8688 7.1831 
170 1 5.41997 12.6754 7.17587 
171 1 5.41997 10.876 8.98971 
172 1 3.61332 12.6826 8.98249 
173 1 3.61332 10.8832 10.7963 
174 1 5.41997 12.6899 10.7891 
175 1 5.41997 10.8904 12.6029 
176 1 3.61332 12.6971 12.5957 
177 1 3.61332 10.8977 14.4096 
178 1 5.41997 12.7043 14.4023 
179 1 5.41997 10.9049 16.2162 
180 1 3.61332 12.7115 16.2089 
181 1 3.61332 14.5977 18.0083 
182 1 5.41997 16.4043 18.0011 
183 1 5.41997 14.4604 1.7488 
184 1 3.61332 16.267 1.74158 
185 1 3.61332 14.4676 3.55542 
186 1 5.41997 16.2742 3.54819 
187 1 5.41997 14.4748 5.36203 
188 1 3.61332 16.2815 5.35481 
189 1 3.61332 14.4821 7.16865 
190 1 5.41997 16.2887 7.16142 
191 1 5.41997 14.4893 8.97526 
192 1 3.61332 16.2959 8.96803 
193 1 3.61332 14.4965 10.7819 
194 1 5.41997 16.3032 10.7746 
195 1 5.41997 14.5037 12.5885 
196 1 3.61332 16.3104 12.5813 
197 1 3.61332 14.511 14.3951 
198 1 5.41997 16.3176 14.3879 
199 1 5.41997 14.5182 16.2017 
200 1 3.61332 16.3248 16.1945 
201 1 7.22663 0 0 
202 1 9.03329 1.95118 18.0589 
203 1 9.03329 18.074 1.80661 
204 1 7.22663 1.81387 1.79939 
205 1 7.22663 18.0812 3.61323 
206 1 9.03329 1.8211 3.606 
207 1 9.03329 18.0884 5.41984 
208 1 7.22663 1.82832 5.41262 
209 1 7.22663 18.0956 7.22646 
210 1 9.03329 1.83555 7.21923 
211 1 9.03329 18.1029 9.03307 
212 1 7.22663 1.84278 9.02585 
213 1 7.22663 18.1101 10.8397 
214 1 9.03329 1.85 10.8325 
215 1 9.03329 18.1173 12.6463 
216 1 7.22663 1.85723 12.6391 
217 1 7.22663 18.1245 14.4529 
218 1 9.03329 1.86446 14.4457 
219 1 9.03329 18.1318 16.2595 
220 1 7.22663 1.87168 16.2523 
221 1 7.22663 3.75782 18.0517 
222 1 9.03329 5.56446 18.0445 
223 1 9.03329 3.62051 1.79216 
224 1 7.22663 5.42716 1.78494 
225 1 7.22663 3.62774 3.59878 
226 1 9.03329 5.43438 3.59155 
227 1 9.03329 3.63497 5.40539 
228 1 7.22663 5.44161 5.39816 
229 1 7.22663 3.64219 7.21201 
230 1 9.03329 5.44884 7.20478 
231 1 9.03329 3.64942 9.01862 
232 1 7.22663 5.45606 9.01139 
233 1 7.22663 3.65665 10.8252 
234 1 9.03329 5.46329 10.818 
235 1 9.03329 3.66387 12.6318 
236 1 7.22663 5.47052 12.6246 
237 1 7.22663 3.6711 14.4385 
238 1 9.03329 5.47774 14.4312 
239 1 9.03329 3.67833 16.2451 
240 1 7.22663 5.48497 16.2379 
241 1 7.22663 7.37111 18.0372 
242 1 9.03329 9.17775 18.03 
243 1 9.03329 7.2338 1.77771 
244 1 7.22663 9.04044 1.77048 
245 1 7.22663 7.24103 3.58432 
246 1 9.03329 9.04767 3.5771 
247 1 9.03329 7.24825 5.39094 
248 1 7.22663 9.0549 5.38371 
249 1 7.22663 7.25548 7.19755 
250 1 9.03329 9.06212 7.19033 
251 1 9.03329 7.26271 9.00417 
252 1 7.22663 9.06935 8.99694 
253 1 7.22663 7.26993 10.8108 
254 1 9.03329 9.07658 10.8036 
255 1 9.03329 7.27716 12.6174 
256 1 7.22663 9.0838 12.6102 
257 1 7.22663 7.28439 14.424 
258 1 9.03329 9.09103 14.4168 
259 1 9.03329 7.29161 16.2306 
260 1 7.22663 9.09826 16.2234 
261 1 7.22663 10.9844 18.0228 
262 1 9.03329 12.791 18.0156 
263 1 9.03329 10.8471 1.76326 
264 1 7.22663 12.6537 1.75603 
265 1 7.22663 10.8543 3.56987 
266 1 9.03329 12.661 3.56264 
267 1 9.03329 10.8615 5.37648 
268 1 7.22663 12.6682 5.36926 
269 1 7.22663 10.8688 7.1831 
270 1 9.03329 12.6754 7.17587 
271 1 9.03329 10.876 8.98971 
272 1 7.22663 12.6826 8.98249 
273 1 7.22663 10.8832 10.7963 
274 1 9.03329 12.6899 10.7891 
275 1 9.03329 10.8904 12.6029 
276 1 7.22663 12.6971 12.5957 
277 1 7.22663 10.8977 14.4096 
278 1 9.03329 12.7043 14.4023 
279 1 9.03329 10.9049 16.2162 
280 1 7.22663 12.7115 16.2089 
281 1 7.22663 14.5977 18.0083 
282 1 9.03329 16.4043 18.0011 
283 1 9.03329 14.4604 1.7488 
284 1 7.22663 16.267 1.74158 
285 1 7.22663 14.4676 3.55542 
286 1 9.03329 16.2742 3.54819 
287 1 9.03329 14.4748 5.36203 
288 1 7.22663 16.2815 5.35481 
289 1 7.22663 14.4821 7.16865 
290 1 9.03329 16.2887 7.16142 
291 1 9.03329 14.4893 8.97526 
292 1 7.22663 16.2959 8.96803 
293 1 7.22663 14.4965 10.7819 
294 1 9.03329 16.3032 10.7746 
295 1 9.03329 14.5037 12.5885 
296 1 7.22663 16.3104 12.5813 
297 1 7.22663 14.511 14.3951 
298 1 9.03329 16.3176 14.3879 
299 1 9.03329 14.5182 16.2017 
300 1 7.22663 16.3248 16.1945 
301 1 10.8399 0 0 
302 1 12.6466 1.95118 18.0589 
303 1 12.6466 18.074 1.80661 
304 1 10.8399 1.81387 1.79939 
305 1 10.8399 18.0812 3.61323 
306 1 12.6466 1.8211 3.606 
307 1 12.6466 18.0884 5.41984 
308 1 10.8399 1.82832 5.41262 
309 1 10.8399 18.0956 7.22646 
310 1 12.6466 1.83555 7.21923 
311 1 12.6466 18.1029 9.03307 
312 1 10.8399 1.84278 9.02585 
313 1 10.8399 18.1101 10.8397 
314 1 12.6466 1.85 10.8325 
315 1 12.6466 18.1173 12.6463 
316 1 10.8399 1.85723 12.6391 
317 1 10.8399 18.1245 14.4529 
318 1 12.6466 1.86446 14.4457 
319 1 12.6466 18.1318 16.2595 
320 1 10.8399 1.87168 16.2523 
321 1 10.8399 3.75782 18.0517 
322 1 12.6466 5.56446 18.0445 
323 1 12.6466 3.62051 1.79216 
324 1 10.8399 5.42716 1.78494 
325 1 10.8399 3.62774 3.59878 
326 1 12.6466 5.43438 3.59155 
327 1 12.6466 3.63497 5.40539 
328 1 10.8399 5.44161 5.39816 
329 1 10.8399 3.64219 7.21201 
330 1 12.6466 5.44884 7.20478 
331 1 12.6466 3.64942 9.01862 
332 1 10.8399 5.45606 9.01139 
333 1 10.8399 3.65665 10.8252 
334 1 12.6466 5.46329 10.818 
335 1 12.6466 3.66387 12.6318 
336 1 10.8399 5.47052 12.6246 
337 1 10.8399 3.6711 14.4385 
338 1 12.6466 5.47774 14.4312 
339 1 12.6466 3.67833 16.2451 
340 1 10.8399 5.48497 16.2379 
341 1 10.8399 7.37111 18.0372 
342 1 12.6466 9.17775 18.03 
343 1 12.6466 7.2338 1.77771 
344 1 10.8399 9.04044 1.77048 
345 1 10.8399 7.24103 3.58432 
346 1 12.6466 9.04767 3.5771 
347 1 12.6466 7.24825 5.39094 
348 1 10.8399 9.0549 5.38371 
349 1 10.8399 7.25548 7.19755 
350 1 12.6466 9.06212 7.19033 
351 1 12.6466 7.26271 9.00417 
352 1 10.8399 9.06935 8.99694 
353 1 10.8399 7.26993 10.8108 
354 1 12.6466 9.07658 10.8036 
355 1 12.6466 7.27716 12.6174 
356 1 10.8399 9.0838 12.6102 
357 1 10.8399 7.28439 14.424 
358 1 12.6466 9.09103 14.4168 
359 1 12.6466 7.29161 16.2306 
360 1 10.8399 9.09826 16.2234 
361 1 10.8399 10.9844 18.0228 
362 1 12.6466 12.791 18.0156 
363 1 12.6466 10.8471 1.76326 
364 1 10.8399 12.6537 1.75603 
365 1 10.8399 10.8543 3.56987 
366 1 12.6466 12.661 3.56264 
367 1 12.6466 10.8615 5.37648 
368 1 10.8399 12.6682 5.36926 
369 1 10.8399 10.8688 7.1831 
370 1 12.6466 12.6754 7.17587 
371 1 12.6466 10.876 8.98971 
372 1 10.8399 12.6826 8.98249 
373 1 10.8399 10.8832 10.7963 
374 1 12.6466 12.6899 10.7891 
375 1 12.6466 10.8904 12.6029 
376 1 10.8399 12.6971 12.5957 
377 1 10.8399 10.8977 14.4096 
378 1 12.6466 12.7043 14.4023 
379 1 12.6466 10.9049 16.2162 
380 1 10.8399 12.7115 16.2089 
381 1 10.8399 14.5977 18.0083 
382 1 12.6466 16.4043 18.0011 
383 1 12.6466 14.4604 1.7488 
384 1 10.8399 16.267 1.74158 
385 1 10.8399 14.4676 3.55542 
386 1 12.6466 16.2742 3.54819 
387 1 12.6466 14.4748 5.36203 
388 1 10.8399 16.2815 5.35481 
389 1 10.8399 14.4821 7.16865 
390 1 12.6466 16.2887 7.16142 
391 1 12.6466 14.4893 8.97526 
392 1 10.8399 16.2959 8.96803 
393 1 10.8399 14.4965 10.7819 
394 1 12.6466 16.3032 10.7746 
395 1 12.6466 14.5037 12.5885 
396 1 10.8399 16.3104 12.5813 
397 1 10.8399 14.511 14.3951 
398 1 12.6466 16.3176 14.3879 
399 1 12.6466 14.5182 16.2017 
400 1 10.8399 16.3248 16.1945 
401 1 14.4533 0 0 
402 1 16.2599 1.95118 18.0589 
403 1 16.2599 18.074 1.80661 
404 1 14.4533 1.81387 1.79939 
405 1 14.4533 18.0812 3.61323 
406 1 16.2599 1.8211 3.606 
407 1 16.2599 18.0884 5.41984 
408 1 14.4533 1.82832 5.41262 
409 1 14.4533 18.0956 7.22646 
410 1 16.2599 1.83555 7.21923 
411 1 16.2599 18.1029 9.03307 
412 1 14.4533 1.84278 9.02585 
413 1 14.4533 18.1101 10.8397 
414 1 16.2599 1.85 10.8325 
415 1 16.2599 18.1173 12.6463 
416 1 14.4533 1.85723 12.6391 
417 1 14.4533 18.1245 14.4529 
418 1 16.2599 1.86446 14.4457 
419 1 16.2599 18.1318 16.2595 
420 1 14.4533 1.87168 16.2523 
421 1 14.4533 3.75782 18.0517 
422 1 16.2599 5.56446 18.0445 
423 1 16.2599 3.62051 1.79216 
424 1 14.4533 5.42716 1.78494 
425 1 14.4533 3.62774 3.59878 
426 1 16.2599 5.43438 3.59155 
427 1 16.2599 3.63497 5.40539 
428 1 14.4533 5.44161 5.39816 
429 1 14.4533 3.64219 7.21201 
430 1 16.2599 5.44884 7.20478 
431 1 16.2599 3.64942 9.01862 
432 1 14.4533 5.45606 9.01139 
433 1 14.4533 3.65665 10.8252 
434 1 16.2599 5.46329 10.818 
435 1 16.2599 3.66387 12.6318 
436 1 14.4533 5.47052 12.6246 
437 1 14.4533 3.6711 14.4385 
438 1 16.2599 5.47774 14.4312 
439 1 16.2599 3.67833 16.2451 
440 1 14.4533 5.48497 16.2379 
441 1 14.4533 7.37111 18.0372 
442 1 16.2599 9.17775 18.03 
443 1 16.2599 7.2338 1.77771 
444 1 14.4533 9.04044 1.77048 
445 1 14.4533 7.24103 3.58432 
446 1 16.2599 9.04767 3.5771 
447 1 16.2599 7.24825 5.39094 
448 1 14.4533 9.0549 5.38371 
449 1 14.4533 7.25548 7.19755 
450 1 16.2599 9.06212 7.19033 
451 1 16.2599 7.26271 9.00417 
452 1 14.4533 9.06935 8.99694 
453 1 14.4533 7.26993 10.8108 
454 1 16.2599 9.07658 10.8036 
455 1 16.2599 7.27716 12.6174 
456 1 14.4533 9.0838 12.6102 
457 1 14.4533 7.28439 14.424 
458 1 16.2599 9.09103 14.4168 
459 1 16.2599 7.29161 16.2306 
460 1 14.4533 9.09826 16.2234 
461 1 14.4533 10.9844 18.0228 
462 1 16.2599 12.791 18.0156 
463 1 16.2599 10.8471 1.76326 
464 1 14.4533 12.6537 1.75603 
465 1 14.4533 10.8543 3.56987 
466 1 16.2599 12.661 3.56264 
467 1 16.2599 10.8615 5.37648 
468 1 14.4533 12.6682 5.36926 
469 1 14.4533 10.8688 7.1831 
470 1 16.2599 12.6754 7.17587 
471 1 16.2599 10.876 8.98971 
472 1 14.4533 12.6826 8.98249 
473 1 14.4533 10.8832 10.7963 
474 1 16.2599 12.6899 10.7891 
475 1 16.2599 10.8904 12.6029 
476 1 14.4533 12.6971 12.5957 
477 1 14.4533 10.8977 14.4096 
478 1 16.2599 12.7043 14.4023 
479 1 16.2599 10.9049 16.2162 
480 1 14.4533 12.7115 16.2089 
481 1 14.4533 14.5977 18.0083 
482 1 16.2599 16.4043 18.0011 
483 1 16.2599 14.4604 1.7488 
484 1 14.4533 16.267 1.74158 
485 1 14.4533 14.4676 3.55542 
486 1 16.2599 16.2742 3.54819 
487 1 16.2599 14.4748 5.36203 
488 1 14.4533 16.2815 5.35481 
489 1 14.4533 14.4821 7.16865 
490 1 16.2599 16.2887 7.16142 
491 1 16.2599 14.4893 8.97526 
492 1 14.4533 16.2959 8.96803 
493 1 14.4533 14.4965 10.7819 
494 1 16.2599 16.3032 10.7746 
495 1 16.2599 14.5037 12.5885 
496 1 14.4533 16.3104 12.5813 
497 1 14.4533 14.511 14.3951 
498 1 16.2599 16.3176 14.3879 
499 1 16.2599 14.5182 16.2017 
500 1 14.4533 16.3248 16.1945 
ITEM: TIMESTEP
1
ITEM: NUMBER OF ATOMS
500
ITEM: BOX BOUNDS xy xz yz pp pp pp
0 18.0666 1.10627e-15
0 18.2113 1.10627e-15
0 18.0661 0.144531
ITEM: ATOMS id type x y z 
1 1 -4.77822e-15 -0.0173917 -0.0175088 
2 1 1.80666 1.92642 18.0603 
3 1 1.80666 18.0754 1.7818 
4 1 -2.05324e-15 1.81184 1.79736 
5 1 -1.24985e-15 18.0849 3.58836 
6 1 1.80666 1.82115 3.60364 
7 1 1.80666 18.0921 5.39497 
8 1 -1.68748e-15 1.82838 5.41025 
9 1 -1.37474e-15 18.0993 7.20159 
10 1 1.80666 1.8356 7.21686 
11 1 1.80666 18.1066 9.0082 
12 1 -1.00725e-15 1.84283 9.02348 
13 1 -7.91218e-16 18.1138 10.8148 
14 1 1.80666 1.85006 10.8301 
15 1 1.80666 18.121 12.6214 
16 1 -1.0655e-15 1.85728 12.6367 
17 1 -7.38323e-16 18.1307 14.428 
18 1 1.80666 1.86724 14.4429 
19 1 1.80666 18.1657 16.2255 
20 1 -4.2341e-16 1.89655 16.2462 
21 1 -1.32829e-15 3.73301 18.0554 
22 1 1.80666 5.53965 18.0481 
23 1 1.80666 3.61815 1.79222 
24 1 -1.64485e-15 5.42479 1.78499 
25 1 -9.92181e-16 3.62774 3.59878 
26 1 1.80666 5.43438 3.59155 
27 1 1.80666 3.63497 5.40539 
28 1 -7.63807e-16 5.44161 5.39816 
29 1 -1.25201e-15 3.64219 7.21201 
30 1 1.80666 5.44884 7.20478 
31 1 1.80666 3.64942 9.01862 
32 1 -4.32569e-16 5.45606 9.01139 
33 1 -6.27066e-16 3.65665 10.8252 
34 1 1.80666 5.46329 10.818 
35 1 1.80666 3.66387 12.6318 
36 1 -1.88884e-16 5.47052 12.6246 
37 1 -2.03476e-16 3.67346 14.4384 
38 1 1.80666 5.48011 14.4312 
39 1 1.80666 3.70314 16.2414 
40 1 -1.85344e-16 5.50978 16.2342 
41 1 -1.14995e-15 7.34629 18.0409 
42 1 1.80666 9.15294 18.0337 
43 1 1.80666 7.23144 1.77776 
44 1 -1.72578e-15 9.03808 1.77054 
45 1 -1.01551e-15 7.24103 3.58432 
46 1 1.80666 9.04767 3.5771 
47 1 1.80666 7.24825 5.39094 
48 1 -6.41395e-16 9.0549 5.38371 
49 1 -4.28662e-16 7.25548 7.19755 
50 1 1.80666 9.06212 7.19033 
51 1 1.80666 7.26271 9.00417 
52 1 -6.09075e-16 9.06935 8.99694 
53 1 -8.47502e-16 7.26993 10.8108 
54 1 1.80666 9.07658 10.8036 
55 1 1.80666 7.27716 12.6174 
56 1 6.18379e-17 9.0838 12.6102 
57 1 -4.55691e-17 7.28675 14.424 
58 1 1.80666 9.0934 14.4167 
59 1 1.80666 7.31643 16.2269 
60 1 -3.02891e-16 9.12307 16.2197 
61 1 -8.805e-16 10.9596 18.0265 
62 1 1.80666 12.7662 18.0192 
63 1 1.80666 10.8447 1.76331 
64 1 -1.40948e-15 12.6514 1.75608 
65 1 -6.20192e-16 10.8543 3.56987 
66 1 1.80666 12.661 3.56264 
67 1 1.80666 10.8615 5.37648 
68 1 -6.40431e-16 12.6682 5.36926 
69 1 7.59337e-17 10.8688 7.1831 
70 1 1.80666 12.6754 7.17587 
71 1 1.80666 10.876 8.98971 
72 1 -3.0915e-16 12.6826 8.98249 
73 1 -2.48946e-16 10.8832 10.7963 
74 1 1.80666 12.6899 10.7891 
75 1 1.80666 10.8904 12.6029 
76 1 4.91359e-16 12.6971 12.5957 
77 1 1.45985e-16 10.9 14.4095 
78 1 1.80666 12.7067 14.4023 
79 1 1.80666 10.9297 16.2125 
80 1 5.46958e-16 12.7364 16.2053 
81 1 -9.56839e-16 14.5728 18.0145 
82 1 1.80666 16.3704 18.0351 
83 1 1.80666 14.4576 1.75159 
84 1 -6.29738e-16 16.2609 1.7665 
85 1 -5.14402e-16 14.4675 3.55778 
86 1 1.80666 16.2705 3.57306 
87 1 1.80666 14.4748 5.3644 
88 1 -7.15687e-16 16.2778 5.37968 
89 1 2.00743e-17 14.482 7.17101 
90 1 1.80666 16.285 7.18629 
91 1 1.80666 14.4892 8.97763 
92 1 -1.64693e-16 16.2922 8.99291 
93 1 2.44072e-16 14.4965 10.7842 
94 1 1.80666 16.2994 10.7995 
95 1 1.80666 14.5037 12.5909 
96 1 6.47602e-16 16.3067 12.6061 
97 1 5.9028e-18 14.513 14.3971 
98 1 1.80666 16.3162 14.4127 
99 1 1.80666 14.5429 16.2003 
100 1 -4.5986e-16 16.3422 16.212 
101 1 3.61332 -0.0173917 -0.0175088 
102 1 5.41997 1.92642 18.0603 
103 1 5.41997 18.0754 1.7818 
104 1 3.61332 1.81184 1.79736 
105 1 3.61332 18.0849 3.58836 
106 1 5.41997 1.82115 3.60364 
107 1 5.41997 18.0921 5.39497 
108 1 3.61332 1.82838 5.41025 
109 1 3.61332 18.0993 7.20159 
110 1 5.41997 1.8356 7.21686 
111 1 5.41997 18.1066 9.0082 
112 1 3.61332 1.84283 9.02348 
113 1 3.61332 18.1138 10.8148 
114 1 5.41997 1.85006 10.8301 
115 1 5.41997 18.121 12.6214 
116 1 3.61332 1.85728 12.6367 
117 1 3.61332 18.1307 14.428 
118 1 5.41997 1.86724 14.4429 
119 1 5.41997 18.1657 16.2255 
120 1 3.61332 1.89655 16.2462 
121 1 3.61332 3.73301 18.0554 
122 1 5.41997 5.53965 18.0481 
123 1 5.41997 3.61815 1.79222 
124 1 3.61332 5.42479 1.78499 
125 1 3.61332 3.62774 3.59878 
126 1 5.41997 5.43438 3.59155 
127 1 5.41997 3.63497 5.40539 
128 1 3.61332 5.44161 5.39816 
129 1 3.61332 3.64219 7.21201 
130 1 5.41997 5.44884 7.20478 
131 1 5.41997 3.64942 9.01862 
132 1 3.61332 5.45606 9.01139 
133 1 3.61332 3.65665 10.8252 
134 1 5.41997 5.46329 10.818 
135 1 5.41997 3.66387 12.6318 
136 1 3.61332 5.47052 12.6246 
137 1 3.61332 3.67346 14.4384 
138 1 5.41997 5.48011 14.4312 
139 1 5.41997 3.70314 16.2414 
140 1 3.61332 5.50978 16.2342 
141 1 3.61332 7.34629 18.0409 
142 1 5.41997 9.15294 18.0337 
143 1 5.41997 7.23144 1.77776 
144 1 3.61332 9.03808 1.77054 
145 1 3.61332 7.24103 3.58432 
146 1 5.41997 9.04767 3.5771 
147 1 5.41997 7.24825 5.39094 
148 1 3.61332 9.0549 5.38371 
149 1 3.61332 7.25548 7.19755 
150 1 5.41997 9.06212 7.19033 
151 1 5.41997 7.26271 9.00417 
152 1 3.61332 9.06935 8.99694 
153 1 3.61332 7.26993 10.8108 
154 1 5.41997 9.07658 10.8036 
155 1 5.41997 7.27716 12.6174 
156 1 3.61332 9.0838 12.6102 
157 1 3.61332 7.28675 14.424 
158 1 5.41997 9.0934 14.4167 
159 1 5.41997 7.31643 16.2269 
160 1 3.61332 9.12307 16.2197 
161 1 3.61332 10.9596 18.0265 
162 1 5.41997 12.7662 18.0192 
163 1 5.41997 10.8447 1.76331 
164 1 3.61332 12.6514 1.75608 
165 1 3.61332 10.8543 3.56987 
166 1 5.41997 12.661 3.56264 
167 1 5.41997 10.8615 5.37648 
168 1 3.61332 12.6682 5.36926 
169 1 3.61332 10.8688 7.1831 
170 1 5.41997 12.6754 7.17587 
171 1 5.41997 10.876 8.98971 
172 1 3.61332 12.6826 8.98249 
173 1 3.61332 10.8832 10.7963 
174 1 5.41997 12.6899 10.7891 
175 1 5.41997 10.8904 12.6029 
176 1 3.61332 12.6971 12.5957 
177 1 3.61332 10.9 14.4095 
178 1 5.41997 12.7067 14.4023 
179 1 5.41997 10.9297 16.2125 
180 1 3.61332 12.7364 16.2053 
181 1 3.61332 14.5728 18.0145 
182 1 5.41997 16.3704 18.0351 
183 1 5.41997 14.4576 1.75159 
184 1 3.61332 16.2609 1.7665 
185 1 3.61332 14.4675 3.55778 
186 1 5.41997 16.2705 3.57306 
187 1 5.41997 14.4748 5.3644 
188 1 3.61332 16.2778 5.37968 
189 1 3.61332 14.482 7.17101 
190 1 5.41997 16.285 7.18629 
191 1 5.41997 14.4892 8.97763 
192 1 3.61332 16.2922 8.99291 
193 1 3.61332 14.4965 10.7842 
194 1 5.41997 16.2994 10.7995 
195 1 5.41997 14.5037 12.5909 
196 1 3.61332 16.3067 12.6061 
197 1 3.61332 14.513 14.3971 
198 1 5.41997 16.3162 14.4127 
199 1 5.41997 14.5429 16.2003 
200 1 3.61332 16.3422 16.212 
201 1 7.22663 -0.0173917 -0.0175088 
202 1 9.03329 1.92642 18.0603 
203 1 9.03329 18.0754 1.7818 
204 1 7.22663 1.81184 1.79736 
205 1 7.22663 18.0849 3.58836 
206 1 9.03329 1.82115 3.60364 
207 1 9.03329 18.0921 5.39497 
208 1 7.22663 1.82838 5.41025 
209 1 7.22663 18.0993 7.20159 
210 1 9.03329 1.8356 7.21686 
211 1 9.03329 18.1066 9.0082 
212 1 7.22663 1.84283 9.02348 
213 1 7.22663 18.1138 10.8148 
214 1 9.03329 1.85006 10.8301 
215 1 9.03329 18.121 12.6214 
216 1 7.22663 1.85728 12.6367 
217 1 7.22663 18.1307 14.428 
218 1 9.03329 1.86724 14.4429 
219 1 9.03329 18.1657 16.2255 
220 1 7.22663 1.89655 16.2462 
221 1 7.22663 3.73301 18.0554 
222 1 9.03329 5.53965 18.0481 
223 1 9.03329 3.61815 1.79222 
224 1 7.22663 5.42479 1.78499 
225 1 7.22663 3.62774 3.59878 
226 1 9.03329 5.43438 3.59155 
227 1 9.03329 3.63497 5.40539 
228 1 7.22663 5.44161 5.39816 
229 1 7.22663 3.64219 7.21201 
230 1 9.03329 5.44884 7.20478 
231 1 9.03329 3.64942 9.01862 
232 1 7.22663 5.45606 9.01139 
233 1 7.22663 3.65665 10.8252 
234 1 9.03329 5.46329 10.818 
235 1 9.03329 3.66387 12.6318 
236 1 7.22663 5.47052 12.6246 
237 1 7.22663 3.67346 14.4384 
238 1 9.03329 5.48011 14.4312 
239 1 9.03329 3.70314 16.2414 
240 1 7.22663 5.50978 16.2342 
241 1 7.22663 7.34629 18.0409 
242 1 9.03329 9.15294 18.0337 
243 1 9.03329 7.23144 1.77776 
244 1 7.22663 9.03808 1.77054 
245 1 7.22663 7.24103 3.58432 
246 1 9.03329 9.04767 3.5771 
247 1 9.03329 7.24825 5.39094 
248 1 7.22663 9.0549 5.38371 
249 1 7.22663 7.25548 7.19755 
250 1 9.03329 9.06212 7.19033 
251 1 9.03329 7.26271 9.00417 
252 1 7.22663 9.06935 8.99694 
253 1 7.22663 7.26993 10.8108 
254 1 9.03329 9.07658 10.8036 
255 1 9.03329 7.27716 12.6174 
256 1 7.22663 9.0838 12.6102 
257 1 7.22663 7.28675 14.424 
258 1 9.03329 9.0934 14.4167 
259 1 9.03329 7.31643 16.2269 
260 1 7.22663 9.12307 16.2197 
261 1 7.22663 10.9596 18.0265 
262 1 9.03329 12.7662 18.0192 
263 1 9.03329 10.8447 1.76331 
264 1 7.22663 12.6514 1.75608 
265 1 7.22663 10.8543 3.56987 
266 1 9.03329 12.661 3.56264 
267 1 9.03329 10.8615 5.37648 
268 1 7.22663 12.6682 5.36926 
269 1 7.22663 10.8688 7.1831 
270 1 9.03329 12.6754 7.17587 
271 1 9.03329 10.876 8.98971 
272 1 7.22663 12.6826 8.98249 
273 1 7.22663 10.8832 10.7963 
274 1 9.03329 12.6899 10.7891 
275 1 9.03329 10.8904 12.6029 
276 1 7.22663 12.6971 12.5957 
277 1 7.22663 10.9 14.4095 
278 1 9.03329 12.7067 14.4023 
279 1 9.03329 10.9297 16.2125 
280 1 7.22663 12.7364 16.2053 
281 1 7.22663 14.5728 18.0145 
282 1 9.03329 16.3704 18.0351 
283 1 9.03329 14.4576 1.75159 
284 1 7.22663 16.2609 1.7665 
285 1 7.22663 14.4675 3.55778 
286 1 9.03329 16.2705 3.57306 
287 1 9.03329 14.4748 5.3644 
288 1 7.22663 16.2778 5.37968 
289 1 7.22663 14.482 7.17101 
290 1 9.03329 16.285 7.18629 
291 1 9.03329 14.4892 8.97763 
292 1 7.22663 16.2922 8.99291 
293 1 7.22663 14.4965 10.7842 
294 1 9.03329 16.2994 10.7995 
295 1 9.03329 14.5037 12.5909 
296 1 7.22663 16.3067 12.6061 
297 1 7.22663 14.513 14.3971 
298 1 9.03329 16.3162 14.4127 
299 1 9.03329 14.5429 16.2003 
300 1 7.22663 16.3422 16.212 
301 1 10.8399 -0.0173917 -0.0175088 
302 1 12.6466 1.92642 18.0603 
303 1 12.6466 18.0754 1.7818 
304 1 10.8399 1.81184 1.79736 
305 1 10.8399 18.0849 3.58836 
306 1 12.6466 1.82115 3.60364 
307 1 12.6466 18.0921 5.39497 
308 1 10.8399 1.82838 5.41025 
309 1 10.8399 18.0993 7.20159 
310 1 12.6466 1.8356 7.21686 
311 1 12.6466 18.1066 9.0082 
312 1 10.8399 1.84283 9.02348 
313 1 10.8399 18.1138 10.8148 
314 1 12.6466 1.85006 10.8301 
315 1 12.6466 18.121 12.6214 
316 1 10.8399 1.85728 12.6367 
317 1 10.8399 18.1307 14.428 
318 1 12.6466 1.86724 14.4429 
319 1 12.6466 18.1657 16.2255 
320 1 10.8399 1.89655 16.2462 
321 1 10.8399 3.73301 18.0554 
322 1 12.6466 5.53965 18.0481 
323 1 12.6466 3.61815 1.79222 
324 1 10.8399 5.42479 1.78499 
325 1 10.8399 3.62774 3.59878 
326 1 12.6466 5.43438 3.59155 
327 1 12.6466 3.63497 5.40539 
328 1 10.8399 5.44161 5.39816 
329 1 10.8399 3.64219 7.21201 
330 1 12.6466 5.44884 7.20478 
331 1 12.6466 3.64942 9.01862 
332 1 10.8399 5.45606 9.01139 
333 1 10.8399 3.65665 10.8252 
334 1 12.6466 5.46329 10.818 
335 1 12.6466 3.66387 12.6318 
336 1 10.8399 5.47052 12.6246 
337 1 10.8399 3.67346 14.4384 
338 1 12.6466 5.48011 14.4312 
339 1 12.6466 3.70314 16.2414 
340 1 10.8399 5.50978 16.2342 
341 1 10.8399 7.34629 18.0409 
342 1 12.6466 9.15294 18.0337 
343 1 12.6466 7.23144 1.77776 
344 1 10.8399 9.03808 1.77054 
345 1 10.8399 7.24103 3.58432 
346 1 12.6466 9.04767 3.5771 
347 1 12.6466 7.24825 5.39094 
348 1 10.8399 9.0549 5.38371 
349 1 10.8399 7.25548 7.19755 
350 1 12.6466 9.06212 7.19033 
351 1 12.6466 7.26271 9.00417 
352 1 10.8399 9.06935 8.99694 
353 1 10.8399 7.26993 10.8108 
354 1 12.6466 9.07658 10.8036 
355 1 12.6466 7.27716 12.6174 
356 1 10.8399 9.0838 12.6102 
357 1 10.8399 7.28675 14.424 
358 1 12.6466 9.0934 14.4167 
359 1 12.6466 7.31643 16.2269 
360 1 10.8399 9.12307 16.2197 
361 1 10.8399 10.9596 18.0265 
362 1 12.6466 12.7662 18.0192 
363 1 12.6466 10.8447 1.76331 
364 1 10.8399 12.6514 1.75608 
365 1 10.8399 10.8543 3.56987 
366 1 12.6466 12.661 3.56264 
367 1 12.6466 10.8615 5.37648 
368 1 10.8399 12.6682 5.36926 
369 1 10.8399 10.8688 7.1831 
370 1 12.6466 12.6754 7.17587 
371 1 12.6466 10.876 8.98971 
372 1 10.8399 12.6826 8.98249 
373 1 10.8399 10.8832 10.7963 
374 1 12.6466 12.6899 10.7891 
375 1 12.6466 10.8904 12.6029 
376 1 10.8399 12.6971 12.5957 
377 1 10.8399 10.9 14.4095 
378 1 12.6466 12.7067 14.4023 
379 1 12.6466 10.9297 16.2125 
380 1 10.8399 12.7364 16.2053 
381 1 10.8399 14.5728 18.0145 
382 1 12.6466 16.3704 18.0351 
383 1 12.6466 14.4576 1.75159 
384 1 10.8399 16.2609 1.7665 
385 1 10.8399 14.4675 3.55778 
386 1 12.6466 16.2705 3.57306 
387 1 12.6466 14.4748 5.3644 
388 1 10.8399 16.2778 5.37968 
389 1 10.8399 14.482 7.17101 
390 1 12.6466 16.285 7.18629 
391 1 12.6466 14.4892 8.97763 
392 1 10.8399 16.2922 8.99291 
393 1 10.8399 14.4965 10.7842 
394 1 12.6466 16.2994 10.7995 
395 1 12.6466 14.5037 12.5909 
396 1 10.8399 16.3067 12.6061 
397 1 10.8399 14.513 14.3971 
398 1 12.6466 16.3162 14.4127 
399 1 12.6466 14.5429 16.2003 
400 1 10.8399 16.3422 16.212 
401 1 14.4533 -0.0173917 -0.0175088 
402 1 16.2599 1.92642 18.0603 
403 1 16.2599 18.0754 1.7818 
404 1 14.4533 1.81184 1.79736 
405 1 14.4533 18.0849 3.58836 
406 1 16.2599 1.82115 3.60364 
407 1 16.2599 18.0921 5.39497 
408 1 14.4533 1.82838 5.41025 
409 1 14.4533 18.0993 7.20159 
410 1 16.2599 1.8356 7.21686 
411 1 16.2599 18.1066 9.0082 
412 1 14.4533 1.84283 9.02348 
413 1 14.4533 18.1138 10.8148 
414 1 16.2599 1.85006 10.8301 
415 1 16.2599 18.121 12.6214 
416 1 14.4533 1.85728 12.6367 
417 1 14.4533 18.1307 14.428 
418 1 16.2599 1.86724 14.4429 
419 1 16.2599 18.1657 16.2255 
420 1 14.4533 1.89655 16.2462 
421 1 14.4533 3.73301 18.0554 
422 1 16.2599 5.53965 18.0481 
423 1 16.2599 3.61815 1.79222 
424 1 14.4533 5.42479 1.78499 
425 1 14.4533 3.62774 3.59878 
426 1 16.2599 5.43438 3.59155 
427 1 16.2599 3.63497 5.40539 
428 1 14.4533 5.44161 5.39816 
429 1 14.4533 3.64219 7.21201 
430 1 16.2599 5.44884 7.20478 
431 1 16.2599 3.64942 9.01862 
432 1 14.4533 5.45606 9.01139 
433 1 14.4533 3.65665 10.8252 
434 1 16.2599 5.46329 10.818 
435 1 16.2599 3.66387 12.6318 
436 1 14.4533 5.47052 12.6246 
437 1 14.4533 3.67346 14.4384 
438 1 16.2599 5.48011 14.4312 
439 1 16.2599 3.70314 16.2414 
440 1 14.4533 5.50978 16.2342 
441 1 14.4533 7.34629 18.0409 
442 1 16.2599 9.15294 18.0337 
443 1 16.2599 7.23144 1.77776 
444 1 14.4533 9.03808 1.77054 
445 1 14.4533 7.24103 3.58432 
446 1 16.2599 9.04767 3.5771 
447 1 16.2599 7.24825 5.39094 
448 1 14.4533 9.0549 5.38371 
449 1 14.4533 7.25548 7.19755 
450 1 16.2599 9.06212 7.19033 
451 1 16.2599 7.26271 9.00417 
452 1 14.4533 9.06935 8.99694 
453 1 14.4533 7.26993 10.8108 
454 1 16.2599 9.07658 10.8036 
455 1 16.2599 7.27716 12.6174 
456 1 14.4533 9.0838 12.6102 
457 1 14.4533 7.28675 14.424 
458 1 16.2599 9.0934 14.4167 