thermo_style    custom step atoms pe ke etotal press vol lx ly lz
thermo_modify   line one format float %.16g
min_style       cg
min_modify      line quadratic
minimize        1.0e-8 1.0e-8 100000 1000000
WARNING: Resetting reneighboring criteria during minimization (../min.cpp:168)
Neighbor list info ...
  2 neighbor list requests
  update every 1 steps, delay 0 steps, check yes
  master list distance cutoff = 6
Memory usage per processor = 10.0729 Mbytes
Step Atoms PotEng KinEng TotEng Press Volume Lx Ly Lz 
       0      500 -1769.538798219245 0 -1769.538798219245 439.2929902288688 5896.860875429806 18.06657979081537 18.06672432287557 18.06614619694725 
      10      500 -1769.903090821526 0 -1769.903090821526 110.904762024151 5896.860875429806 18.06657979081537 18.06672432287557 18.06614619694725 
Loop time of 0.095938 on 1 procs for 10 steps with 500 atoms

Minimization stats:
  Stopping criterion = energy tolerance
  Energy initial, next-to-last, final = 
        -1769.53879822     -1769.90308891     -1769.90309082
  Force two-norm initial, final = 1.51621 0.00193068
  Force max component initial, final = 0.142422 0.000143612
  Final line search alpha, max atom move = 1 0.000143612
  Iterations, force evaluations = 10 20

Pair  time (%) = 0.0902271 (94.0474)
Neigh time (%) = 0 (0)
Comm  time (%) = 0.000267267 (0.278583)
Outpt time (%) = 0.0046339 (4.8301)
Other time (%) = 0.000809669 (0.843951)

Nlocal:    500 ave 500 max 500 min
Histogram: 1 0 0 0 0 0 0 0 0 0
Nghost:    1956 ave 1956 max 1956 min
Histogram: 1 0 0 0 0 0 0 0 0 0
Neighs:    19500 ave 19500 max 19500 min
Histogram: 1 0 0 0 0 0 0 0 0 0
FullNghs:  39000 ave 39000 max 39000 min
Histogram: 1 0 0 0 0 0 0 0 0 0

Total # of neighbors = 39000
Ave neighs/atom = 78
Neighbor list builds = 0
Dangerous builds = 0
