 
 500 atoms 
 
 1 atom types
 0.00000000000000000000 22.03539102599399868154 xlo xhi
 0.00000000000000000000 21.94760062349999785170 ylo yhi
 0.00000000000000000000 21.94760062349999785170 zlo zhi
 0.00000000000000134390 0.00000000000000134390 0.00000000000000134390 xy xz yz
 
 Atoms 
 
	1	1	0.00000000000000000000	0.00000000000000000000	0.00000000000000000000
	2	1	2.19476006234999987399	2.19476006234999987399	0.00000000000000000000
	3	1	2.19476006234999987399	0.00000000000000013439	2.19476006234999987399
	4	1	0.00000000000000026878	2.19476006234999987399	2.19476006234999987399
	5	1	0.00000000000000026878	0.00000000000000026878	4.38952012469999974797
	6	1	2.19476006235000031808	2.19476006235000031808	4.38952012469999974797
	7	1	2.19476006235000031808	0.00000000000000040317	6.58428018705000006605
	8	1	0.00000000000000053756	2.19476006235000031808	6.58428018705000006605
	9	1	0.00000000000000053756	0.00000000000000053756	8.77904024939999949595
	10	1	2.19476006235000031808	2.19476006235000031808	8.77904024939999949595
	11	1	2.19476006235000076217	0.00000000000000067195	10.97380031174999892585
	12	1	0.00000000000000080634	2.19476006235000076217	10.97380031174999892585
	13	1	0.00000000000000080634	0.00000000000000080634	13.16856037410000013210
	14	1	2.19476006235000076217	2.19476006235000076217	13.16856037410000013210
	15	1	2.19476006235000076217	0.00000000000000094073	15.36332043644999956200
	16	1	0.00000000000000107512	2.19476006235000076217	15.36332043644999956200
	17	1	0.00000000000000107512	0.00000000000000107512	17.55808049879999899190
	18	1	2.19476006235000076217	2.19476006235000076217	17.55808049879999899190
	19	1	2.19476006235000120626	0.00000000000000120951	19.75284056114999842180
	20	1	0.00000000000000134390	2.19476006235000120626	19.75284056114999842180
	21	1	0.00000000000000026878	4.38952012469999974797	0.00000000000000000000
	22	1	2.19476006235000031808	6.58428018705000006605	0.00000000000000000000
	23	1	2.19476006235000031808	4.38952012469999974797	2.19476006234999987399
	24	1	0.00000000000000053756	6.58428018705000006605	2.19476006234999987399
	25	1	0.00000000000000053756	4.38952012469999974797	4.38952012469999974797
	26	1	2.19476006235000076217	6.58428018705000006605	4.38952012469999974797
	27	1	2.19476006235000076217	4.38952012469999974797	6.58428018705000006605
	28	1	0.00000000000000080634	6.58428018705000006605	6.58428018705000006605
	29	1	0.00000000000000080634	4.38952012470000063615	8.77904024939999949595
	30	1	2.19476006235000076217	6.58428018705000095423	8.77904024939999949595
	31	1	2.19476006235000120626	4.38952012470000063615	10.97380031174999892585
	32	1	0.00000000000000107512	6.58428018705000095423	10.97380031174999892585
	33	1	0.00000000000000107512	4.38952012470000063615	13.16856037410000013210
	34	1	2.19476006235000120626	6.58428018705000095423	13.16856037410000013210
	35	1	2.19476006235000120626	4.38952012470000063615	15.36332043644999956200
	36	1	0.00000000000000134390	6.58428018705000095423	15.36332043644999956200
	37	1	0.00000000000000134390	4.38952012470000063615	17.55808049879999899190
	38	1	2.19476006235000120626	6.58428018705000095423	17.55808049879999899190
	39	1	2.19476006235000165034	4.38952012470000063615	19.75284056114999842180
	40	1	0.00000000000000161268	6.58428018705000095423	19.75284056114999842180
	41	1	0.00000000000000053756	8.77904024939999949595	0.00000000000000000000
	42	1	2.19476006235000076217	10.97380031174999892585	0.00000000000000000000
	43	1	2.19476006235000031808	8.77904024939999949595	2.19476006234999987399
	44	1	0.00000000000000080634	10.97380031174999892585	2.19476006234999987399
	45	1	0.00000000000000080634	8.77904024939999949595	4.38952012469999974797
	46	1	2.19476006235000120626	10.97380031174999892585	4.38952012469999974797
	47	1	2.19476006235000076217	8.77904024939999949595	6.58428018705000006605
	48	1	0.00000000000000107512	10.97380031174999892585	6.58428018705000006605
	49	1	0.00000000000000107512	8.77904024939999949595	8.77904024939999949595
	50	1	2.19476006235000120626	10.97380031174999892585	8.77904024939999949595
	51	1	2.19476006235000120626	8.77904024939999949595	10.97380031174999892585
	52	1	0.00000000000000134390	10.97380031174999892585	10.97380031174999892585
	53	1	0.00000000000000134390	8.77904024939999949595	13.16856037410000013210
	54	1	2.19476006235000165034	10.97380031174999892585	13.16856037410000013210
	55	1	2.19476006235000120626	8.77904024940000127231	15.36332043644999956200
	56	1	0.00000000000000161268	10.97380031175000070220	15.36332043644999956200
	57	1	0.00000000000000161268	8.77904024940000127231	17.55808049879999899190
	58	1	2.19476006235000165034	10.97380031175000070220	17.55808049879999899190
	59	1	2.19476006235000165034	8.77904024940000127231	19.75284056114999842180
	60	1	0.00000000000000188146	10.97380031175000070220	19.75284056114999842180
	61	1	0.00000000000000080634	13.16856037410000013210	0.00000000000000000000
	62	1	2.19476006235000076217	15.36332043644999956200	0.00000000000000000000
	63	1	2.19476006235000076217	13.16856037410000013210	2.19476006234999987399
	64	1	0.00000000000000107512	15.36332043644999956200	2.19476006234999987399
	65	1	0.00000000000000107512	13.16856037410000013210	4.38952012469999974797
	66	1	2.19476006235000120626	15.36332043644999956200	4.38952012469999974797
	67	1	2.19476006235000120626	13.16856037410000013210	6.58428018705000006605
	68	1	0.00000000000000134390	15.36332043644999956200	6.58428018705000006605
	69	1	0.00000000000000134390	13.16856037410000013210	8.77904024939999949595
	70	1	2.19476006235000120626	15.36332043644999956200	8.77904024939999949595
	71	1	2.19476006235000165034	13.16856037410000013210	10.97380031174999892585
	72	1	0.00000000000000161268	15.36332043644999956200	10.97380031174999892585
	73	1	0.00000000000000161268	13.16856037410000013210	13.16856037410000013210
	74	1	2.19476006235000165034	15.36332043644999956200	13.16856037410000013210
	75	1	2.19476006235000165034	13.16856037410000190846	15.36332043644999956200
	76	1	0.00000000000000188146	15.36332043645000133836	15.36332043644999956200
	77	1	0.00000000000000188146	13.16856037410000190846	17.55808049879999899190
	78	1	2.19476006235000165034	15.36332043645000133836	17.55808049879999899190
	79	1	2.19476006235000209443	13.16856037410000190846	19.75284056114999842180
	80	1	0.00000000000000215024	15.36332043645000133836	19.75284056114999842180
	81	1	0.00000000000000107512	17.55808049879999899190	0.00000000000000000000
	82	1	2.19476006235000120626	19.75284056114999842180	0.00000000000000000000
	83	1	2.19476006235000076217	17.55808049879999899190	2.19476006234999987399
	84	1	0.00000000000000134390	19.75284056114999842180	2.19476006234999987399
	85	1	0.00000000000000134390	17.55808049879999899190	4.38952012469999974797
	86	1	2.19476006235000165034	19.75284056114999842180	4.38952012469999974797
	87	1	2.19476006235000120626	17.55808049879999899190	6.58428018705000006605
	88	1	0.00000000000000161268	19.75284056114999842180	6.58428018705000006605
	89	1	0.00000000000000161268	17.55808049879999899190	8.77904024939999949595
	90	1	2.19476006235000165034	19.75284056114999842180	8.77904024939999949595
	91	1	2.19476006235000165034	17.55808049879999899190	10.97380031174999892585
	92	1	0.00000000000000188146	19.75284056114999842180	10.97380031174999892585
	93	1	0.00000000000000188146	17.55808049879999899190	13.16856037410000013210
	94	1	2.19476006235000209443	19.75284056114999842180	13.16856037410000013210
	95	1	2.19476006235000165034	17.55808049879999899190	15.36332043644999956200
	96	1	0.00000000000000215024	19.75284056114999842180	15.36332043644999956200
	97	1	0.00000000000000215024	17.55808049879999899190	17.55808049879999899190
	98	1	2.19476006235000209443	19.75284056114999842180	17.55808049879999899190
	99	1	2.19476006235000209443	17.55808049879999899190	19.75284056114999842180
	100	1	0.00000000000000241903	19.75284056114999842180	19.75284056114999842180
	101	1	4.38952012469999974797	0.00000000000000000000	0.00000000000000000000
	102	1	6.58428018705000006605	2.19476006234999987399	0.00000000000000000000
	103	1	6.58428018705000006605	0.00000000000000013439	2.19476006234999987399
	104	1	4.38952012469999974797	2.19476006234999987399	2.19476006234999987399
	105	1	4.38952012469999974797	0.00000000000000026878	4.38952012469999974797
	106	1	6.58428018705000006605	2.19476006235000031808	4.38952012469999974797
	107	1	6.58428018705000006605	0.00000000000000040317	6.58428018705000006605
	108	1	4.38952012469999974797	2.19476006235000031808	6.58428018705000006605
	109	1	4.38952012470000063615	0.00000000000000053756	8.77904024939999949595
	110	1	6.58428018705000095423	2.19476006235000031808	8.77904024939999949595
	111	1	6.58428018705000095423	0.00000000000000067195	10.97380031174999892585
	112	1	4.38952012470000063615	2.19476006235000076217	10.97380031174999892585
	113	1	4.38952012470000063615	0.00000000000000080634	13.16856037410000013210
	114	1	6.58428018705000095423	2.19476006235000076217	13.16856037410000013210
	115	1	6.58428018705000095423	0.00000000000000094073	15.36332043644999956200
	116	1	4.38952012470000063615	2.19476006235000076217	15.36332043644999956200
	117	1	4.38952012470000063615	0.00000000000000107512	17.55808049879999899190
	118	1	6.58428018705000095423	2.19476006235000076217	17.55808049879999899190
	119	1	6.58428018705000095423	0.00000000000000120951	19.75284056114999842180
	120	1	4.38952012470000063615	2.19476006235000120626	19.75284056114999842180
	121	1	4.38952012469999974797	4.38952012469999974797	0.00000000000000000000
	122	1	6.58428018705000006605	6.58428018705000006605	0.00000000000000000000
	123	1	6.58428018705000006605	4.38952012469999974797	2.19476006234999987399
	124	1	4.38952012469999974797	6.58428018705000006605	2.19476006234999987399
	125	1	4.38952012469999974797	4.38952012469999974797	4.38952012469999974797
	126	1	6.58428018705000006605	6.58428018705000006605	4.38952012469999974797
	127	1	6.58428018705000006605	4.38952012469999974797	6.58428018705000006605
	128	1	4.38952012469999974797	6.58428018705000006605	6.58428018705000006605
	129	1	4.38952012470000063615	4.38952012470000063615	8.77904024939999949595
	130	1	6.58428018705000095423	6.58428018705000095423	8.77904024939999949595
	131	1	6.58428018705000095423	4.38952012470000063615	10.97380031174999892585
	132	1	4.38952012470000063615	6.58428018705000095423	10.97380031174999892585
	133	1	4.38952012470000063615	4.38952012470000063615	13.16856037410000013210
	134	1	6.58428018705000095423	6.58428018705000095423	13.16856037410000013210
	135	1	6.58428018705000095423	4.38952012470000063615	15.36332043644999956200
	136	1	4.38952012470000063615	6.58428018705000095423	15.36332043644999956200
	137	1	4.38952012470000063615	4.38952012470000063615	17.55808049879999899190
	138	1	6.58428018705000095423	6.58428018705000095423	17.55808049879999899190
	139	1	6.58428018705000095423	4.38952012470000063615	19.75284056114999842180
	140	1	4.38952012470000063615	6.58428018705000095423	19.75284056114999842180
	141	1	4.38952012470000063615	8.77904024939999949595	0.00000000000000000000
	142	1	6.58428018705000095423	10.97380031174999892585	0.00000000000000000000
	143	1	6.58428018705000095423	8.77904024939999949595	2.19476006234999987399
	144	1	4.38952012470000063615	10.97380031174999892585	2.19476006234999987399
	145	1	4.38952012470000063615	8.77904024939999949595	4.38952012469999974797
	146	1	6.58428018705000095423	10.97380031174999892585	4.38952012469999974797
	147	1	6.58428018705000095423	8.77904024939999949595	6.58428018705000006605
	148	1	4.38952012470000063615	10.97380031174999892585	6.58428018705000006605
	149	1	4.38952012470000152433	8.77904024939999949595	8.77904024939999949595
	150	1	6.58428018705000184241	10.97380031174999892585	8.77904024939999949595
	151	1	6.58428018705000184241	8.77904024939999949595	10.97380031174999892585
	152	1	4.38952012470000152433	10.97380031174999892585	10.97380031174999892585
	153	1	4.38952012470000152433	8.77904024939999949595	13.16856037410000013210
	154	1	6.58428018705000184241	10.97380031174999892585	13.16856037410000013210
	155	1	6.58428018705000184241	8.77904024940000127231	15.36332043644999956200
	156	1	4.38952012470000152433	10.97380031175000070220	15.36332043644999956200
	157	1	4.38952012470000152433	8.77904024940000127231	17.55808049879999899190
	158	1	6.58428018705000184241	10.97380031175000070220	17.55808049879999899190
	159	1	6.58428018705000184241	8.77904024940000127231	19.75284056114999842180
	160	1	4.38952012470000152433	10.97380031175000070220	19.75284056114999842180
	161	1	4.38952012470000063615	13.16856037410000013210	0.00000000000000000000
	162	1	6.58428018705000095423	15.36332043644999956200	0.00000000000000000000
	163	1	6.58428018705000095423	13.16856037410000013210	2.19476006234999987399
	164	1	4.38952012470000063615	15.36332043644999956200	2.19476006234999987399
	165	1	4.38952012470000063615	13.16856037410000013210	4.38952012469999974797
	166	1	6.58428018705000095423	15.36332043644999956200	4.38952012469999974797
	167	1	6.58428018705000095423	13.16856037410000013210	6.58428018705000006605
	168	1	4.38952012470000063615	15.36332043644999956200	6.58428018705000006605
	169	1	4.38952012470000152433	13.16856037410000013210	8.77904024939999949595
	170	1	6.58428018705000184241	15.36332043644999956200	8.77904024939999949595
	171	1	6.58428018705000184241	13.16856037410000013210	10.97380031174999892585
	172	1	4.38952012470000152433	15.36332043644999956200	10.97380031174999892585
	173	1	4.38952012470000152433	13.16856037410000013210	13.16856037410000013210
	174	1	6.58428018705000184241	15.36332043644999956200	13.16856037410000013210
	175	1	6.58428018705000184241	13.16856037410000190846	15.36332043644999956200
	176	1	4.38952012470000152433	15.36332043645000133836	15.36332043644999956200
	177	1	4.38952012470000152433	13.16856037410000190846	17.55808049879999899190
	178	1	6.58428018705000184241	15.36332043645000133836	17.55808049879999899190
	179	1	6.58428018705000184241	13.16856037410000190846	19.75284056114999842180
	180	1	4.38952012470000152433	15.36332043645000133836	19.75284056114999842180
	181	1	4.38952012470000063615	17.55808049879999899190	0.00000000000000000000
	182	1	6.58428018705000095423	19.75284056114999842180	0.00000000000000000000
	183	1	6.58428018705000095423	17.55808049879999899190	2.19476006234999987399
	184	1	4.38952012470000063615	19.75284056114999842180	2.19476006234999987399
	185	1	4.38952012470000063615	17.55808049879999899190	4.38952012469999974797
	186	1	6.58428018705000095423	19.75284056114999842180	4.38952012469999974797
	187	1	6.58428018705000095423	17.55808049879999899190	6.58428018705000006605
	188	1	4.38952012470000063615	19.75284056114999842180	6.58428018705000006605
	189	1	4.38952012470000152433	17.55808049879999899190	8.77904024939999949595
	190	1	6.58428018705000184241	19.75284056114999842180	8.77904024939999949595
	191	1	6.58428018705000184241	17.55808049879999899190	10.97380031174999892585
	192	1	4.38952012470000152433	19.75284056114999842180	10.97380031174999892585
	193	1	4.38952012470000152433	17.55808049879999899190	13.16856037410000013210
	194	1	6.58428018705000184241	19.75284056114999842180	13.16856037410000013210
	195	1	6.58428018705000184241	17.55808049879999899190	15.36332043644999956200
	196	1	4.38952012470000152433	19.75284056114999842180	15.36332043644999956200
	197	1	4.38952012470000152433	17.55808049879999899190	17.55808049879999899190
	198	1	6.58428018705000184241	19.75284056114999842180	17.55808049879999899190
	199	1	6.58428018705000184241	17.55808049879999899190	19.75284056114999842180
	200	1	4.38952012470000152433	19.75284056114999842180	19.75284056114999842180
	201	1	8.77904024939999949595	0.00000000000000000000	0.00000000000000000000
	202	1	10.97380031174999892585	2.19476006234999987399	0.00000000000000000000
	203	1	10.97380031174999892585	0.00000000000000013439	2.19476006234999987399
	204	1	8.77904024939999949595	2.19476006234999987399	2.19476006234999987399
	205	1	8.77904024939999949595	0.00000000000000026878	4.38952012469999974797
	206	1	10.97380031174999892585	2.19476006235000031808	4.38952012469999974797
	207	1	10.97380031174999892585	0.00000000000000040317	6.58428018705000006605
	208	1	8.77904024939999949595	2.19476006235000031808	6.58428018705000006605
	209	1	8.77904024939999949595	0.00000000000000053756	8.77904024939999949595
	210	1	10.97380031174999892585	2.19476006235000031808	8.77904024939999949595
	211	1	10.97380031174999892585	0.00000000000000067195	10.97380031174999892585
	212	1	8.77904024939999949595	2.19476006235000076217	10.97380031174999892585
	213	1	8.77904024939999949595	0.00000000000000080634	13.16856037410000013210
	214	1	10.97380031174999892585	2.19476006235000076217	13.16856037410000013210
	215	1	10.97380031175000070220	0.00000000000000094073	15.36332043644999956200
	216	1	8.77904024940000127231	2.19476006235000076217	15.36332043644999956200
	217	1	8.77904024940000127231	0.00000000000000107512	17.55808049879999899190
	218	1	10.97380031175000070220	2.19476006235000076217	17.55808049879999899190
	219	1	10.97380031175000070220	0.00000000000000120951	19.75284056114999842180
	220	1	8.77904024940000127231	2.19476006235000120626	19.75284056114999842180
	221	1	8.77904024939999949595	4.38952012469999974797	0.00000000000000000000
	222	1	10.97380031174999892585	6.58428018705000006605	0.00000000000000000000
	223	1	10.97380031174999892585	4.38952012469999974797	2.19476006234999987399
	224	1	8.77904024939999949595	6.58428018705000006605	2.19476006234999987399
	225	1	8.77904024939999949595	4.38952012469999974797	4.38952012469999974797
	226	1	10.97380031174999892585	6.58428018705000006605	4.38952012469999974797
	227	1	10.97380031174999892585	4.38952012469999974797	6.58428018705000006605
	228	1	8.77904024939999949595	6.58428018705000006605	6.58428018705000006605
	229	1	8.77904024939999949595	4.38952012470000063615	8.77904024939999949595
	230	1	10.97380031174999892585	6.58428018705000095423	8.77904024939999949595
	231	1	10.97380031174999892585	4.38952012470000063615	10.97380031174999892585
	232	1	8.77904024939999949595	6.58428018705000095423	10.97380031174999892585
	233	1	8.77904024939999949595	4.38952012470000063615	13.16856037410000013210
	234	1	10.97380031174999892585	6.58428018705000095423	13.16856037410000013210
	235	1	10.97380031175000070220	4.38952012470000063615	15.36332043644999956200
	236	1	8.77904024940000127231	6.58428018705000095423	15.36332043644999956200
	237	1	8.77904024940000127231	4.38952012470000063615	17.55808049879999899190
	238	1	10.97380031175000070220	6.58428018705000095423	17.55808049879999899190
	239	1	10.97380031175000070220	4.38952012470000063615	19.75284056114999842180
	240	1	8.77904024940000127231	6.58428018705000095423	19.75284056114999842180
	241	1	8.77904024939999949595	8.77904024939999949595	0.00000000000000000000
	242	1	10.97380031174999892585	10.97380031174999892585	0.00000000000000000000
	243	1	10.97380031174999892585	8.77904024939999949595	2.19476006234999987399
	244	1	8.77904024939999949595	10.97380031174999892585	2.19476006234999987399
	245	1	8.77904024939999949595	8.77904024939999949595	4.38952012469999974797
	246	1	10.97380031174999892585	10.97380031174999892585	4.38952012469999974797
	247	1	10.97380031174999892585	8.77904024939999949595	6.58428018705000006605
	248	1	8.77904024939999949595	10.97380031174999892585	6.58428018705000006605
	249	1	8.77904024939999949595	8.77904024939999949595	8.77904024939999949595
	250	1	10.97380031174999892585	10.97380031174999892585	8.77904024939999949595
	251	1	10.97380031174999892585	8.77904024939999949595	10.97380031174999892585
	252	1	8.77904024939999949595	10.97380031174999892585	10.97380031174999892585
	253	1	8.77904024939999949595	8.77904024939999949595	13.16856037410000013210
	254	1	10.97380031174999892585	10.97380031174999892585	13.16856037410000013210
	255	1	10.97380031175000070220	8.77904024940000127231	15.36332043644999956200
	256	1	8.77904024940000127231	10.97380031175000070220	15.36332043644999956200
	257	1	8.77904024940000127231	8.77904024940000127231	17.55808049879999899190
	258	1	10.97380031175000070220	10.97380031175000070220	17.55808049879999899190
	259	1	10.97380031175000070220	8.77904024940000127231	19.75284056114999842180
	260	1	8.77904024940000127231	10.97380031175000070220	19.75284056114999842180
	261	1	8.77904024939999949595	13.16856037410000013210	0.00000000000000000000
	262	1	10.97380031175000070220	15.36332043644999956200	0.00000000000000000000
	263	1	10.97380031174999892585	13.16856037410000013210	2.19476006234999987399
	264	1	8.77904024940000127231	15.36332043644999956200	2.19476006234999987399
	265	1	8.77904024939999949595	13.16856037410000013210	4.38952012469999974797
	266	1	10.97380031175000070220	15.36332043644999956200	4.38952012469999974797
	267	1	10.97380031174999892585	13.16856037410000013210	6.58428018705000006605
	268	1	8.77904024940000127231	15.36332043644999956200	6.58428018705000006605
	269	1	8.77904024939999949595	13.16856037410000013210	8.77904024939999949595
	270	1	10.97380031175000070220	15.36332043644999956200	8.77904024939999949595
	271	1	10.97380031174999892585	13.16856037410000013210	10.97380031174999892585
	272	1	8.77904024940000127231	15.36332043644999956200	10.97380031174999892585
	273	1	8.77904024939999949595	13.16856037410000013210	13.16856037410000013210
	274	1	10.97380031175000070220	15.36332043644999956200	13.16856037410000013210
	275	1	10.97380031175000070220	13.16856037410000190846	15.36332043644999956200
	276	1	8.77904024940000304866	15.36332043645000133836	15.36332043644999956200
	277	1	8.77904024940000127231	13.16856037410000190846	17.55808049879999899190
	278	1	10.97380031175000247856	15.36332043645000133836	17.55808049879999899190
	279	1	10.97380031175000070220	13.16856037410000190846	19.75284056114999842180
	280	1	8.77904024940000304866	15.36332043645000133836	19.75284056114999842180
	281	1	8.77904024940000127231	17.55808049879999899190	0.00000000000000000000
	282	1	10.97380031175000070220	19.75284056114999842180	0.00000000000000000000
	283	1	10.97380031175000070220	17.55808049879999899190	2.19476006234999987399
	284	1	8.77904024940000127231	19.75284056114999842180	2.19476006234999987399
	285	1	8.77904024940000127231	17.55808049879999899190	4.38952012469999974797
	286	1	10.97380031175000070220	19.75284056114999842180	4.38952012469999974797
	287	1	10.97380031175000070220	17.55808049879999899190	6.58428018705000006605
	288	1	8.77904024940000127231	19.75284056114999842180	6.58428018705000006605
	289	1	8.77904024940000127231	17.55808049879999899190	8.77904024939999949595
	290	1	10.97380031175000070220	19.75284056114999842180	8.77904024939999949595
	291	1	10.97380031175000070220	17.55808049879999899190	10.97380031174999892585
	292	1	8.77904024940000127231	19.75284056114999842180	10.97380031174999892585
	293	1	8.77904024940000127231	17.55808049879999899190	13.16856037410000013210
	294	1	10.97380031175000070220	19.75284056114999842180	13.16856037410000013210
	295	1	10.97380031175000247856	17.55808049879999899190	15.36332043644999956200
	296	1	8.77904024940000304866	19.75284056114999842180	15.36332043644999956200
	297	1	8.77904024940000304866	17.55808049879999899190	17.55808049879999899190
	298	1	10.97380031175000247856	19.75284056114999842180	17.55808049879999899190
	299	1	10.97380031175000247856	17.55808049879999899190	19.75284056114999842180
	300	1	8.77904024940000304866	19.75284056114999842180	19.75284056114999842180
	301	1	13.16856037410000013210	0.00000000000000000000	0.00000000000000000000
	302	1	15.36332043644999956200	2.19476006234999987399	0.00000000000000000000
	303	1	15.36332043644999956200	0.00000000000000013439	2.19476006234999987399
	304	1	13.16856037410000013210	2.19476006234999987399	2.19476006234999987399
	305	1	13.16856037410000013210	0.00000000000000026878	4.38952012469999974797
	306	1	15.36332043644999956200	2.19476006235000031808	4.38952012469999974797
	307	1	15.36332043644999956200	0.00000000000000040317	6.58428018705000006605
	308	1	13.16856037410000013210	2.19476006235000031808	6.58428018705000006605
	309	1	13.16856037410000013210	0.00000000000000053756	8.77904024939999949595
	310	1	15.36332043644999956200	2.19476006235000031808	8.77904024939999949595
	311	1	15.36332043644999956200	0.00000000000000067195	10.97380031174999892585
	312	1	13.16856037410000013210	2.19476006235000076217	10.97380031174999892585
	313	1	13.16856037410000013210	0.00000000000000080634	13.16856037410000013210
	314	1	15.36332043644999956200	2.19476006235000076217	13.16856037410000013210
	315	1	15.36332043645000133836	0.00000000000000094073	15.36332043644999956200
	316	1	13.16856037410000190846	2.19476006235000076217	15.36332043644999956200
	317	1	13.16856037410000190846	0.00000000000000107512	17.55808049879999899190
	318	1	15.36332043645000133836	2.19476006235000076217	17.55808049879999899190
	319	1	15.36332043645000133836	0.00000000000000120951	19.75284056114999842180
	320	1	13.16856037410000190846	2.19476006235000120626	19.75284056114999842180
	321	1	13.16856037410000013210	4.38952012469999974797	0.00000000000000000000
	322	1	15.36332043644999956200	6.58428018705000006605	0.00000000000000000000
	323	1	15.36332043644999956200	4.38952012469999974797	2.19476006234999987399
	324	1	13.16856037410000013210	6.58428018705000006605	2.19476006234999987399
	325	1	13.16856037410000013210	4.38952012469999974797	4.38952012469999974797
	326	1	15.36332043644999956200	6.58428018705000006605	4.38952012469999974797
	327	1	15.36332043644999956200	4.38952012469999974797	6.58428018705000006605
	328	1	13.16856037410000013210	6.58428018705000006605	6.58428018705000006605
	329	1	13.16856037410000013210	4.38952012470000063615	8.77904024939999949595
	330	1	15.36332043644999956200	6.58428018705000095423	8.77904024939999949595
	331	1	15.36332043644999956200	4.38952012470000063615	10.97380031174999892585
	332	1	13.16856037410000013210	6.58428018705000095423	10.97380031174999892585
	333	1	13.16856037410000013210	4.38952012470000063615	13.16856037410000013210
	334	1	15.36332043644999956200	6.58428018705000095423	13.16856037410000013210
	335	1	15.36332043645000133836	4.38952012470000063615	15.36332043644999956200
	336	1	13.16856037410000190846	6.58428018705000095423	15.36332043644999956200
	337	1	13.16856037410000190846	4.38952012470000063615	17.55808049879999899190
	338	1	15.36332043645000133836	6.58428018705000095423	17.55808049879999899190
	339	1	15.36332043645000133836	4.38952012470000063615	19.75284056114999842180
	340	1	13.16856037410000190846	6.58428018705000095423	19.75284056114999842180
	341	1	13.16856037410000013210	8.77904024939999949595	0.00000000000000000000
	342	1	15.36332043644999956200	10.97380031174999892585	0.00000000000000000000
	343	1	15.36332043644999956200	8.77904024939999949595	2.19476006234999987399
	344	1	13.16856037410000013210	10.97380031174999892585	2.19476006234999987399
	345	1	13.16856037410000013210	8.77904024939999949595	4.38952012469999974797
	346	1	15.36332043644999956200	10.97380031174999892585	4.38952012469999974797
	347	1	15.36332043644999956200	8.77904024939999949595	6.58428018705000006605
	348	1	13.16856037410000013210	10.97380031174999892585	6.58428018705000006605
	349	1	13.16856037410000013210	8.77904024939999949595	8.77904024939999949595
	350	1	15.36332043644999956200	10.97380031174999892585	8.77904024939999949595
	351	1	15.36332043644999956200	8.77904024939999949595	10.97380031174999892585
	352	1	13.16856037410000013210	10.97380031174999892585	10.97380031174999892585
	353	1	13.16856037410000013210	8.77904024939999949595	13.16856037410000013210
	354	1	15.36332043644999956200	10.97380031174999892585	13.16856037410000013210
	355	1	15.36332043645000133836	8.77904024940000127231	15.36332043644999956200
	356	1	13.16856037410000190846	10.97380031175000070220	15.36332043644999956200
	357	1	13.16856037410000190846	8.77904024940000127231	17.55808049879999899190
	358	1	15.36332043645000133836	10.97380031175000070220	17.55808049879999899190
	359	1	15.36332043645000133836	8.77904024940000127231	19.75284056114999842180
	360	1	13.16856037410000190846	10.97380031175000070220	19.75284056114999842180
	361	1	13.16856037410000013210	13.16856037410000013210	0.00000000000000000000
	362	1	15.36332043645000133836	15.36332043644999956200	0.00000000000000000000
	363	1	15.36332043644999956200	13.16856037410000013210	2.19476006234999987399
	364	1	13.16856037410000190846	15.36332043644999956200	2.19476006234999987399
	365	1	13.16856037410000013210	13.16856037410000013210	4.38952012469999974797
	366	1	15.36332043645000133836	15.36332043644999956200	4.38952012469999974797
	367	1	15.36332043644999956200	13.16856037410000013210	6.58428018705000006605
	368	1	13.16856037410000190846	15.36332043644999956200	6.58428018705000006605
	369	1	13.16856037410000013210	13.16856037410000013210	8.77904024939999949595
	370	1	15.36332043645000133836	15.36332043644999956200	8.77904024939999949595
	371	1	15.36332043644999956200	13.16856037410000013210	10.97380031174999892585
	372	1	13.16856037410000190846	15.36332043644999956200	10.97380031174999892585
	373	1	13.16856037410000013210	13.16856037410000013210	13.16856037410000013210
	374	1	15.36332043645000133836	15.36332043644999956200	13.16856037410000013210
	375	1	15.36332043645000133836	13.16856037410000190846	15.36332043644999956200
	376	1	13.16856037410000368482	15.36332043645000133836	15.36332043644999956200
	377	1	13.16856037410000190846	13.16856037410000190846	17.55808049879999899190
	378	1	15.36332043645000311471	15.36332043645000133836	17.55808049879999899190
	379	1	15.36332043645000133836	13.16856037410000190846	19.75284056114999842180
	380	1	13.16856037410000368482	15.36332043645000133836	19.75284056114999842180
	381	1	13.16856037410000190846	17.55808049879999899190	0.00000000000000000000
	382	1	15.36332043645000133836	19.75284056114999842180	0.00000000000000000000
	383	1	15.36332043645000133836	17.55808049879999899190	2.19476006234999987399
	384	1	13.16856037410000190846	19.75284056114999842180	2.19476006234999987399
	385	1	13.16856037410000190846	17.55808049879999899190	4.38952012469999974797