ITEM: TIMESTEP
0
ITEM: NUMBER OF ATOMS
500
ITEM: BOX BOUNDS xy xz yz pp pp pp
0 22.0354 1.3439e-15
0 21.9476 1.3439e-15
0 21.9476 1.3439e-15
ITEM: ATOMS id type x y z 
1 1 0 0 0 
2 1 2.19476 2.19476 0 
3 1 2.19476 1.3439e-16 2.19476 
4 1 2.6878e-16 2.19476 2.19476 
5 1 2.6878e-16 2.6878e-16 4.38952 
6 1 2.19476 2.19476 4.38952 
7 1 2.19476 4.0317e-16 6.58428 
8 1 5.3756e-16 2.19476 6.58428 
9 1 5.3756e-16 5.3756e-16 8.77904 
10 1 2.19476 2.19476 8.77904 
11 1 2.19476 6.7195e-16 10.9738 
12 1 8.0634e-16 2.19476 10.9738 
13 1 8.0634e-16 8.0634e-16 13.1686 
14 1 2.19476 2.19476 13.1686 
15 1 2.19476 9.4073e-16 15.3633 
16 1 1.07512e-15 2.19476 15.3633 
17 1 1.07512e-15 1.07512e-15 17.5581 
18 1 2.19476 2.19476 17.5581 
19 1 2.19476 1.20951e-15 19.7528 
20 1 1.3439e-15 2.19476 19.7528 
21 1 2.6878e-16 4.38952 0 
22 1 2.19476 6.58428 0 
23 1 2.19476 4.38952 2.19476 
24 1 5.3756e-16 6.58428 2.19476 
25 1 5.3756e-16 4.38952 4.38952 
26 1 2.19476 6.58428 4.38952 
27 1 2.19476 4.38952 6.58428 
28 1 8.0634e-16 6.58428 6.58428 
29 1 8.0634e-16 4.38952 8.77904 
30 1 2.19476 6.58428 8.77904 
31 1 2.19476 4.38952 10.9738 
32 1 1.07512e-15 6.58428 10.9738 
33 1 1.07512e-15 4.38952 13.1686 
34 1 2.19476 6.58428 13.1686 
35 1 2.19476 4.38952 15.3633 
36 1 1.3439e-15 6.58428 15.3633 
37 1 1.3439e-15 4.38952 17.5581 
38 1 2.19476 6.58428 17.5581 
39 1 2.19476 4.38952 19.7528 
40 1 1.61268e-15 6.58428 19.7528 
41 1 5.3756e-16 8.77904 0 
42 1 2.19476 10.9738 0 
43 1 2.19476 8.77904 2.19476 
44 1 8.0634e-16 10.9738 2.19476 
45 1 8.0634e-16 8.77904 4.38952 
46 1 2.19476 10.9738 4.38952 
47 1 2.19476 8.77904 6.58428 
48 1 1.07512e-15 10.9738 6.58428 
49 1 1.07512e-15 8.77904 8.77904 
50 1 2.19476 10.9738 8.77904 
51 1 2.19476 8.77904 10.9738 
52 1 1.3439e-15 10.9738 10.9738 
53 1 1.3439e-15 8.77904 13.1686 
54 1 2.19476 10.9738 13.1686 
55 1 2.19476 8.77904 15.3633 
56 1 1.61268e-15 10.9738 15.3633 
57 1 1.61268e-15 8.77904 17.5581 
58 1 2.19476 10.9738 17.5581 
59 1 2.19476 8.77904 19.7528 
60 1 1.88146e-15 10.9738 19.7528 
61 1 8.0634e-16 13.1686 0 
62 1 2.19476 15.3633 0 
63 1 2.19476 13.1686 2.19476 
64 1 1.07512e-15 15.3633 2.19476 
65 1 1.07512e-15 13.1686 4.38952 
66 1 2.19476 15.3633 4.38952 
67 1 2.19476 13.1686 6.58428 
68 1 1.3439e-15 15.3633 6.58428 
69 1 1.3439e-15 13.1686 8.77904 
70 1 2.19476 15.3633 8.77904 
71 1 2.19476 13.1686 10.9738 
72 1 1.61268e-15 15.3633 10.9738 
73 1 1.61268e-15 13.1686 13.1686 
74 1 2.19476 15.3633 13.1686 
75 1 2.19476 13.1686 15.3633 
76 1 1.88146e-15 15.3633 15.3633 
77 1 1.88146e-15 13.1686 17.5581 
78 1 2.19476 15.3633 17.5581 
79 1 2.19476 13.1686 19.7528 
80 1 2.15024e-15 15.3633 19.7528 
81 1 1.07512e-15 17.5581 0 
82 1 2.19476 19.7528 0 
83 1 2.19476 17.5581 2.19476 
84 1 1.3439e-15 19.7528 2.19476 
85 1 1.3439e-15 17.5581 4.38952 
86 1 2.19476 19.7528 4.38952 
87 1 2.19476 17.5581 6.58428 
88 1 1.61268e-15 19.7528 6.58428 
89 1 1.61268e-15 17.5581 8.77904 
90 1 2.19476 19.7528 8.77904 
91 1 2.19476 17.5581 10.9738 
92 1 1.88146e-15 19.7528 10.9738 
93 1 1.88146e-15 17.5581 13.1686 
94 1 2.19476 19.7528 13.1686 
95 1 2.19476 17.5581 15.3633 
96 1 2.15024e-15 19.7528 15.3633 
97 1 2.15024e-15 17.5581 17.5581 
98 1 2.19476 19.7528 17.5581 
99 1 2.19476 17.5581 19.7528 
100 1 2.41903e-15 19.7528 19.7528 
101 1 4.38952 0 0 
102 1 6.58428 2.19476 0 
103 1 6.58428 1.3439e-16 2.19476 
104 1 4.38952 2.19476 2.19476 
105 1 4.38952 2.6878e-16 4.38952 
106 1 6.58428 2.19476 4.38952 
107 1 6.58428 4.0317e-16 6.58428 
108 1 4.38952 2.19476 6.58428 
109 1 4.38952 5.3756e-16 8.77904 
110 1 6.58428 2.19476 8.77904 
111 1 6.58428 6.7195e-16 10.9738 
112 1 4.38952 2.19476 10.9738 
113 1 4.38952 8.0634e-16 13.1686 
114 1 6.58428 2.19476 13.1686 
115 1 6.58428 9.4073e-16 15.3633 
116 1 4.38952 2.19476 15.3633 
117 1 4.38952 1.07512e-15 17.5581 
118 1 6.58428 2.19476 17.5581 
119 1 6.58428 1.20951e-15 19.7528 
120 1 4.38952 2.19476 19.7528 
121 1 4.38952 4.38952 0 
122 1 6.58428 6.58428 0 
123 1 6.58428 4.38952 2.19476 
124 1 4.38952 6.58428 2.19476 
125 1 4.38952 4.38952 4.38952 
126 1 6.58428 6.58428 4.38952 
127 1 6.58428 4.38952 6.58428 
128 1 4.38952 6.58428 6.58428 
129 1 4.38952 4.38952 8.77904 
130 1 6.58428 6.58428 8.77904 
131 1 6.58428 4.38952 10.9738 
132 1 4.38952 6.58428 10.9738 
133 1 4.38952 4.38952 13.1686 
134 1 6.58428 6.58428 13.1686 
135 1 6.58428 4.38952 15.3633 
136 1 4.38952 6.58428 15.3633 
137 1 4.38952 4.38952 17.5581 
138 1 6.58428 6.58428 17.5581 
139 1 6.58428 4.38952 19.7528 
140 1 4.38952 6.58428 19.7528 
141 1 4.38952 8.77904 0 
142 1 6.58428 10.9738 0 
143 1 6.58428 8.77904 2.19476 
144 1 4.38952 10.9738 2.19476 
145 1 4.38952 8.77904 4.38952 
146 1 6.58428 10.9738 4.38952 
147 1 6.58428 8.77904 6.58428 
148 1 4.38952 10.9738 6.58428 
149 1 4.38952 8.77904 8.77904 
150 1 6.58428 10.9738 8.77904 
151 1 6.58428 8.77904 10.9738 
152 1 4.38952 10.9738 10.9738 
153 1 4.38952 8.77904 13.1686 
154 1 6.58428 10.9738 13.1686 
155 1 6.58428 8.77904 15.3633 
156 1 4.38952 10.9738 15.3633 
157 1 4.38952 8.77904 17.5581 
158 1 6.58428 10.9738 17.5581 
159 1 6.58428 8.77904 19.7528 
160 1 4.38952 10.9738 19.7528 
161 1 4.38952 13.1686 0 
162 1 6.58428 15.3633 0 
163 1 6.58428 13.1686 2.19476 
164 1 4.38952 15.3633 2.19476 
165 1 4.38952 13.1686 4.38952 
166 1 6.58428 15.3633 4.38952 
167 1 6.58428 13.1686 6.58428 
168 1 4.38952 15.3633 6.58428 
169 1 4.38952 13.1686 8.77904 
170 1 6.58428 15.3633 8.77904 
171 1 6.58428 13.1686 10.9738 
172 1 4.38952 15.3633 10.9738 
173 1 4.38952 13.1686 13.1686 
174 1 6.58428 15.3633 13.1686 
175 1 6.58428 13.1686 15.3633 
176 1 4.38952 15.3633 15.3633 
177 1 4.38952 13.1686 17.5581 
178 1 6.58428 15.3633 17.5581 
179 1 6.58428 13.1686 19.7528 
180 1 4.38952 15.3633 19.7528 
181 1 4.38952 17.5581 0 
182 1 6.58428 19.7528 0 
183 1 6.58428 17.5581 2.19476 
184 1 4.38952 19.7528 2.19476 
185 1 4.38952 17.5581 4.38952 
186 1 6.58428 19.7528 4.38952 
187 1 6.58428 17.5581 6.58428 
188 1 4.38952 19.7528 6.58428 
189 1 4.38952 17.5581 8.77904 
190 1 6.58428 19.7528 8.77904 
191 1 6.58428 17.5581 10.9738 
192 1 4.38952 19.7528 10.9738 
193 1 4.38952 17.5581 13.1686 
194 1 6.58428 19.7528 13.1686 
195 1 6.58428 17.5581 15.3633 
196 1 4.38952 19.7528 15.3633 
197 1 4.38952 17.5581 17.5581 
198 1 6.58428 19.7528 17.5581 
199 1 6.58428 17.5581 19.7528 
200 1 4.38952 19.7528 19.7528 
201 1 8.77904 0 0 
202 1 10.9738 2.19476 0 
203 1 10.9738 1.3439e-16 2.19476 
204 1 8.77904 2.19476 2.19476 
205 1 8.77904 2.6878e-16 4.38952 
206 1 10.9738 2.19476 4.38952 
207 1 10.9738 4.0317e-16 6.58428 
208 1 8.77904 2.19476 6.58428 
209 1 8.77904 5.3756e-16 8.77904 
210 1 10.9738 2.19476 8.77904 
211 1 10.9738 6.7195e-16 10.9738 
212 1 8.77904 2.19476 10.9738 
213 1 8.77904 8.0634e-16 13.1686 
214 1 10.9738 2.19476 13.1686 
215 1 10.9738 9.4073e-16 15.3633 
216 1 8.77904 2.19476 15.3633 
217 1 8.77904 1.07512e-15 17.5581 
218 1 10.9738 2.19476 17.5581 
219 1 10.9738 1.20951e-15 19.7528 
220 1 8.77904 2.19476 19.7528 
221 1 8.77904 4.38952 0 
222 1 10.9738 6.58428 0 
223 1 10.9738 4.38952 2.19476 
224 1 8.77904 6.58428 2.19476 
225 1 8.77904 4.38952 4.38952 
226 1 10.9738 6.58428 4.38952 
227 1 10.9738 4.38952 6.58428 
228 1 8.77904 6.58428 6.58428 
229 1 8.77904 4.38952 8.77904 
230 1 10.9738 6.58428 8.77904 
231 1 10.9738 4.38952 10.9738 
232 1 8.77904 6.58428 10.9738 
233 1 8.77904 4.38952 13.1686 
234 1 10.9738 6.58428 13.1686 
235 1 10.9738 4.38952 15.3633 
236 1 8.77904 6.58428 15.3633 
237 1 8.77904 4.38952 17.5581 
238 1 10.9738 6.58428 17.5581 
239 1 10.9738 4.38952 19.7528 
240 1 8.77904 6.58428 19.7528 
241 1 8.77904 8.77904 0 
242 1 10.9738 10.9738 0 
243 1 10.9738 8.77904 2.19476 
244 1 8.77904 10.9738 2.19476 
245 1 8.77904 8.77904 4.38952 
246 1 10.9738 10.9738 4.38952 
247 1 10.9738 8.77904 6.58428 
248 1 8.77904 10.9738 6.58428 
249 1 8.77904 8.77904 8.77904 
250 1 10.9738 10.9738 8.77904 
251 1 10.9738 8.77904 10.9738 
252 1 8.77904 10.9738 10.9738 
253 1 8.77904 8.77904 13.1686 
254 1 10.9738 10.9738 13.1686 
255 1 10.9738 8.77904 15.3633 
256 1 8.77904 10.9738 15.3633 
257 1 8.77904 8.77904 17.5581 
258 1 10.9738 10.9738 17.5581 
259 1 10.9738 8.77904 19.7528 
260 1 8.77904 10.9738 19.7528 
261 1 8.77904 13.1686 0 
262 1 10.9738 15.3633 0 
263 1 10.9738 13.1686 2.19476 
264 1 8.77904 15.3633 2.19476 
265 1 8.77904 13.1686 4.38952 
266 1 10.9738 15.3633 4.38952 
267 1 10.9738 13.1686 6.58428 
268 1 8.77904 15.3633 6.58428 
269 1 8.77904 13.1686 8.77904 
270 1 10.9738 15.3633 8.77904 
271 1 10.9738 13.1686 10.9738 
272 1 8.77904 15.3633 10.9738 
273 1 8.77904 13.1686 13.1686 
274 1 10.9738 15.3633 13.1686 
275 1 10.9738 13.1686 15.3633 
276 1 8.77904 15.3633 15.3633 
277 1 8.77904 13.1686 17.5581 
278 1 10.9738 15.3633 17.5581 
279 1 10.9738 13.1686 19.7528 
280 1 8.77904 15.3633 19.7528 
281 1 8.77904 17.5581 0 
282 1 10.9738 19.7528 0 
283 1 10.9738 17.5581 2.19476 
284 1 8.77904 19.7528 2.19476 
285 1 8.77904 17.5581 4.38952 
286 1 10.9738 19.7528 4.38952 
287 1 10.9738 17.5581 6.58428 
288 1 8.77904 19.7528 6.58428 
289 1 8.77904 17.5581 8.77904 
290 1 10.9738 19.7528 8.77904 
291 1 10.9738 17.5581 10.9738 
292 1 8.77904 19.7528 10.9738 
293 1 8.77904 17.5581 13.1686 
294 1 10.9738 19.7528 13.1686 
295 1 10.9738 17.5581 15.3633 
296 1 8.77904 19.7528 15.3633 
297 1 8.77904 17.5581 17.5581 
298 1 10.9738 19.7528 17.5581 
299 1 10.9738 17.5581 19.7528 
300 1 8.77904 19.7528 19.7528 
301 1 13.1686 0 0 
302 1 15.3633 2.19476 0 
303 1 15.3633 1.3439e-16 2.19476 
304 1 13.1686 2.19476 2.19476 
305 1 13.1686 2.6878e-16 4.38952 
306 1 15.3633 2.19476 4.38952 
307 1 15.3633 4.0317e-16 6.58428 
308 1 13.1686 2.19476 6.58428 
309 1 13.1686 5.3756e-16 8.77904 
310 1 15.3633 2.19476 8.77904 
311 1 15.3633 6.7195e-16 10.9738 
312 1 13.1686 2.19476 10.9738 
313 1 13.1686 8.0634e-16 13.1686 
314 1 15.3633 2.19476 13.1686 
315 1 15.3633 9.4073e-16 15.3633 
316 1 13.1686 2.19476 15.3633 
317 1 13.1686 1.07512e-15 17.5581 
318 1 15.3633 2.19476 17.5581 
319 1 15.3633 1.20951e-15 19.7528 
320 1 13.1686 2.19476 19.7528 
321 1 13.1686 4.38952 0 
322 1 15.3633 6.58428 0 
323 1 15.3633 4.38952 2.19476 
324 1 13.1686 6.58428 2.19476 
325 1 13.1686 4.38952 4.38952 
326 1 15.3633 6.58428 4.38952 
327 1 15.3633 4.38952 6.58428 
328 1 13.1686 6.58428 6.58428 
329 1 13.1686 4.38952 8.77904 
330 1 15.3633 6.58428 8.77904 
331 1 15.3633 4.38952 10.9738 
332 1 13.1686 6.58428 10.9738 
333 1 13.1686 4.38952 13.1686 
334 1 15.3633 6.58428 13.1686 
335 1 15.3633 4.38952 15.3633 
336 1 13.1686 6.58428 15.3633 
337 1 13.1686 4.38952 17.5581 
338 1 15.3633 6.58428 17.5581 
339 1 15.3633 4.38952 19.7528 
340 1 13.1686 6.58428 19.7528 
341 1 13.1686 8.77904 0 
342 1 15.3633 10.9738 0 
343 1 15.3633 8.77904 2.19476 
344 1 13.1686 10.9738 2.19476 
345 1 13.1686 8.77904 4.38952 
346 1 15.3633 10.9738 4.38952 
347 1 15.3633 8.77904 6.58428 
348 1 13.1686 10.9738 6.58428 
349 1 13.1686 8.77904 8.77904 
350 1 15.3633 10.9738 8.77904 
351 1 15.3633 8.77904 10.9738 
352 1 13.1686 10.9738 10.9738 
353 1 13.1686 8.77904 13.1686 
354 1 15.3633 10.9738 13.1686 
355 1 15.3633 8.77904 15.3633 
356 1 13.1686 10.9738 15.3633 
357 1 13.1686 8.77904 17.5581 
358 1 15.3633 10.9738 17.5581 
359 1 15.3633 8.77904 19.7528 
360 1 13.1686 10.9738 19.7528 
361 1 13.1686 13.1686 0 
362 1 15.3633 15.3633 0 
363 1 15.3633 13.1686 2.19476 
364 1 13.1686 15.3633 2.19476 
365 1 13.1686 13.1686 4.38952 
366 1 15.3633 15.3633 4.38952 
367 1 15.3633 13.1686 6.58428 
368 1 13.1686 15.3633 6.58428 
369 1 13.1686 13.1686 8.77904 
370 1 15.3633 15.3633 8.77904 
371 1 15.3633 13.1686 10.9738 
372 1 13.1686 15.3633 10.9738 
373 1 13.1686 13.1686 13.1686 
374 1 15.3633 15.3633 13.1686 
375 1 15.3633 13.1686 15.3633 
376 1 13.1686 15.3633 15.3633 
377 1 13.1686 13.1686 17.5581 
378 1 15.3633 15.3633 17.5581 
379 1 15.3633 13.1686 19.7528 
380 1 13.1686 15.3633 19.7528 
381 1 13.1686 17.5581 0 
382 1 15.3633 19.7528 0 
383 1 15.3633 17.5581 2.19476 
384 1 13.1686 19.7528 2.19476 
385 1 13.1686 17.5581 4.38952 
386 1 15.3633 19.7528 4.38952 
387 1 15.3633 17.5581 6.58428 
388 1 13.1686 19.7528 6.58428 
389 1 13.1686 17.5581 8.77904 
390 1 15.3633 19.7528 8.77904 
391 1 15.3633 17.5581 10.9738 
392 1 13.1686 19.7528 10.9738 
393 1 13.1686 17.5581 13.1686 
394 1 15.3633 19.7528 13.1686 
395 1 15.3633 17.5581 15.3633 
396 1 13.1686 19.7528 15.3633 
397 1 13.1686 17.5581 17.5581 
398 1 15.3633 19.7528 17.5581 
399 1 15.3633 17.5581 19.7528 
400 1 13.1686 19.7528 19.7528 
401 1 17.5581 0 0 
402 1 19.7528 2.19476 0 
403 1 19.7528 1.3439e-16 2.19476 
404 1 17.5581 2.19476 2.19476 
405 1 17.5581 2.6878e-16 4.38952 
406 1 19.7528 2.19476 4.38952 
407 1 19.7528 4.0317e-16 6.58428 
408 1 17.5581 2.19476 6.58428 
409 1 17.5581 5.3756e-16 8.77904 
410 1 19.7528 2.19476 8.77904 
411 1 19.7528 6.7195e-16 10.9738 
412 1 17.5581 2.19476 10.9738 
413 1 17.5581 8.0634e-16 13.1686 
414 1 19.7528 2.19476 13.1686 
415 1 19.7528 9.4073e-16 15.3633 
416 1 17.5581 2.19476 15.3633 
417 1 17.5581 1.07512e-15 17.5581 
418 1 19.7528 2.19476 17.5581 
419 1 19.7528 1.20951e-15 19.7528 
420 1 17.5581 2.19476 19.7528 
421 1 17.5581 4.38952 0 
422 1 19.7528 6.58428 0 
423 1 19.7528 4.38952 2.19476 
424 1 17.5581 6.58428 2.19476 
425 1 17.5581 4.38952 4.38952 
426 1 19.7528 6.58428 4.38952 
427 1 19.7528 4.38952 6.58428 
428 1 17.5581 6.58428 6.58428 
429 1 17.5581 4.38952 8.77904 
430 1 19.7528 6.58428 8.77904 
431 1 19.7528 4.38952 10.9738 
432 1 17.5581 6.58428 10.9738 
433 1 17.5581 4.38952 13.1686 
434 1 19.7528 6.58428 13.1686 
435 1 19.7528 4.38952 15.3633 
436 1 17.5581 6.58428 15.3633 
437 1 17.5581 4.38952 17.5581 
438 1 19.7528 6.58428 17.5581 
439 1 19.7528 4.38952 19.7528 
440 1 17.5581 6.58428 19.7528 
441 1 17.5581 8.77904 0 
442 1 19.7528 10.9738 0 
443 1 19.7528 8.77904 2.19476 
444 1 17.5581 10.9738 2.19476 
445 1 17.5581 8.77904 4.38952 
446 1 19.7528 10.9738 4.38952 
447 1 19.7528 8.77904 6.58428 
448 1 17.5581 10.9738 6.58428 
449 1 17.5581 8.77904 8.77904 
450 1 19.7528 10.9738 8.77904 
451 1 19.7528 8.77904 10.9738 
452 1 17.5581 10.9738 10.9738 
453 1 17.5581 8.77904 13.1686 
454 1 19.7528 10.9738 13.1686 
455 1 19.7528 8.77904 15.3633 
456 1 17.5581 10.9738 15.3633 
457 1 17.5581 8.77904 17.5581 
458 1 19.7528 10.9738 17.5581 
459 1 19.7528 8.77904 19.7528 
460 1 17.5581 10.9738 19.7528 
461 1 17.5581 13.1686 0 
462 1 19.7528 15.3633 0 
463 1 19.7528 13.1686 2.19476 
464 1 17.5581 15.3633 2.19476 
465 1 17.5581 13.1686 4.38952 
466 1 19.7528 15.3633 4.38952 
467 1 19.7528 13.1686 6.58428 
468 1 17.5581 15.3633 6.58428 
469 1 17.5581 13.1686 8.77904 
470 1 19.7528 15.3633 8.77904 
471 1 19.7528 13.1686 10.9738 
472 1 17.5581 15.3633 10.9738 
473 1 17.5581 13.1686 13.1686 
474 1 19.7528 15.3633 13.1686 
475 1 19.7528 13.1686 15.3633 
476 1 17.5581 15.3633 15.3633 
477 1 17.5581 13.1686 17.5581 
478 1 19.7528 15.3633 17.5581 
479 1 19.7528 13.1686 19.7528 
480 1 17.5581 15.3633 19.7528 
481 1 17.5581 17.5581 0 
482 1 19.7528 19.7528 0 
483 1 19.7528 17.5581 2.19476 
484 1 17.5581 19.7528 2.19476 
485 1 17.5581 17.5581 4.38952 
486 1 19.7528 19.7528 4.38952 
487 1 19.7528 17.5581 6.58428 
488 1 17.5581 19.7528 6.58428 
489 1 17.5581 17.5581 8.77904 
490 1 19.7528 19.7528 8.77904 
491 1 19.7528 17.5581 10.9738 
492 1 17.5581 19.7528 10.9738 
493 1 17.5581 17.5581 13.1686 
494 1 19.7528 19.7528 13.1686 
495 1 19.7528 17.5581 15.3633 
496 1 17.5581 19.7528 15.3633 
497 1 17.5581 17.5581 17.5581 
498 1 19.7528 19.7528 17.5581 
499 1 19.7528 17.5581 19.7528 
500 1 17.5581 19.7528 19.7528 
ITEM: TIMESTEP
1
ITEM: NUMBER OF ATOMS
500
ITEM: BOX BOUNDS xy xz yz pp pp pp
0 22.0354 1.3439e-15
0 21.9476 1.3439e-15
0 21.9476 1.3439e-15
ITEM: ATOMS id type x y z 
1 1 -0.0246227 -3.57902e-17 2.0797e-17 
2 1 2.19774 2.19476 1.37962e-16 
3 1 2.19774 2.81278e-16 2.19476 
4 1 -0.0246227 2.19476 2.19476 
5 1 -0.0246227 3.81955e-16 4.38952 
6 1 2.19774 2.19476 4.38952 
7 1 2.19774 6.3373e-16 6.58428 
8 1 -0.0246227 2.19476 6.58428 
9 1 -0.0246227 7.07805e-16 8.77904 
10 1 2.19774 2.19476 8.77904 
11 1 2.19774 7.8196e-16 10.9738 
12 1 -0.0246227 2.19476 10.9738 
13 1 -0.0246227 1.04962e-15 13.1686 
14 1 2.19774 2.19476 13.1686 
15 1 2.19774 1.26485e-15 15.3633 
16 1 -0.0246227 2.19476 15.3633 
17 1 -0.0246227 1.01418e-15 17.5581 
18 1 2.19774 2.19476 17.5581 
19 1 2.19774 1.79873e-15 19.7528 
20 1 -0.0246227 2.19476 19.7528 
21 1 -0.0246227 4.38952 2.4231e-16 
22 1 2.19774 6.58428 7.00691e-17 
23 1 2.19774 4.38952 2.19476 
24 1 -0.0246227 6.58428 2.19476 
25 1 -0.0246227 4.38952 4.38952 
26 1 2.19774 6.58428 4.38952 
27 1 2.19774 4.38952 6.58428 
28 1 -0.0246227 6.58428 6.58428 
29 1 -0.0246227 4.38952 8.77904 
30 1 2.19774 6.58428 8.77904 
31 1 2.19774 4.38952 10.9738 
32 1 -0.0246227 6.58428 10.9738 
33 1 -0.0246227 4.38952 13.1686 
34 1 2.19774 6.58428 13.1686 
35 1 2.19774 4.38952 15.3633 
36 1 -0.0246227 6.58428 15.3633 
37 1 -0.0246227 4.38952 17.5581 
38 1 2.19774 6.58428 17.5581 
39 1 2.19774 4.38952 19.7528 
40 1 -0.0246227 6.58428 19.7528 
41 1 -0.0246227 8.77904 -3.63223e-16 
42 1 2.19774 10.9738 -1.38899e-16 
43 1 2.19774 8.77904 2.19476 
44 1 -0.0246227 10.9738 2.19476 
45 1 -0.0246227 8.77904 4.38952 
46 1 2.19774 10.9738 4.38952 
47 1 2.19774 8.77904 6.58428 
48 1 -0.0246227 10.9738 6.58428 
49 1 -0.0246227 8.77904 8.77904 
50 1 2.19774 10.9738 8.77904 
51 1 2.19774 8.77904 10.9738 
52 1 -0.0246227 10.9738 10.9738 
53 1 -0.0246227 8.77904 13.1686 
54 1 2.19774 10.9738 13.1686 
55 1 2.19774 8.77904 15.3633 
56 1 -0.0246227 10.9738 15.3633 
57 1 -0.0246227 8.77904 17.5581 
58 1 2.19774 10.9738 17.5581 
59 1 2.19774 8.77904 19.7528 
60 1 -0.0246227 10.9738 19.7528 
61 1 -0.0246227 13.1686 -2.41826e-18 
62 1 2.19774 15.3633 9.48955e-16 
63 1 2.19774 13.1686 2.19476 
64 1 -0.0246227 15.3633 2.19476 
65 1 -0.0246227 13.1686 4.38952 
66 1 2.19774 15.3633 4.38952 
67 1 2.19774 13.1686 6.58428 
68 1 -0.0246227 15.3633 6.58428 
69 1 -0.0246227 13.1686 8.77904 
70 1 2.19774 15.3633 8.77904 
71 1 2.19774 13.1686 10.9738 
72 1 -0.0246227 15.3633 10.9738 
73 1 -0.0246227 13.1686 13.1686 
74 1 2.19774 15.3633 13.1686 
75 1 2.19774 13.1686 15.3633 
76 1 -0.0246227 15.3633 15.3633 
77 1 -0.0246227 13.1686 17.5581 
78 1 2.19774 15.3633 17.5581 
79 1 2.19774 13.1686 19.7528 
80 1 -0.0246227 15.3633 19.7528 
81 1 -0.0246227 17.5581 4.82685e-16 
82 1 2.19774 19.7528 4.31417e-16 
83 1 2.19774 17.5581 2.19476 
84 1 -0.0246227 19.7528 2.19476 
85 1 -0.0246227 17.5581 4.38952 
86 1 2.19774 19.7528 4.38952 
87 1 2.19774 17.5581 6.58428 
88 1 -0.0246227 19.7528 6.58428 
89 1 -0.0246227 17.5581 8.77904 
90 1 2.19774 19.7528 8.77904 
91 1 2.19774 17.5581 10.9738 
92 1 -0.0246227 19.7528 10.9738 
93 1 -0.0246227 17.5581 13.1686 
94 1 2.19774 19.7528 13.1686 
95 1 2.19774 17.5581 15.3633 
96 1 -0.0246227 19.7528 15.3633 
97 1 -0.0246227 17.5581 17.5581 
98 1 2.19774 19.7528 17.5581 
99 1 2.19774 17.5581 19.7528 
100 1 -0.0246227 19.7528 19.7528 
101 1 4.39007 4.12736e-16 5.56079e-16 
102 1 6.58423 2.19476 2.21603e-16 
103 1 6.58423 2.84866e-16 2.19476 
104 1 4.39007 2.19476 2.19476 
105 1 4.39007 6.1979e-16 4.38952 
106 1 6.58423 2.19476 4.38952 
107 1 6.58423 6.6809e-16 6.58428 
108 1 4.39007 2.19476 6.58428 
109 1 4.39007 1.32322e-15 8.77904 
110 1 6.58423 2.19476 8.77904 
111 1 6.58423 4.58176e-16 10.9738 
112 1 4.39007 2.19476 10.9738 
113 1 4.39007 1.66382e-15 13.1686 
114 1 6.58423 2.19476 13.1686 
115 1 6.58423 1.00221e-15 15.3633 
116 1 4.39007 2.19476 15.3633 
117 1 4.39007 1.51978e-15 17.5581 
118 1 6.58423 2.19476 17.5581 
119 1 6.58423 1.15044e-15 19.7528 
120 1 4.39007 2.19476 19.7528 
121 1 4.39007 4.38952 4.77002e-16 
122 1 6.58423 6.58428 -2.5029e-17 
123 1 6.58423 4.38952 2.19476 
124 1 4.39007 6.58428 2.19476 
125 1 4.39007 4.38952 4.38952 
126 1 6.58423 6.58428 4.38952 
127 1 6.58423 4.38952 6.58428 
128 1 4.39007 6.58428 6.58428 
129 1 4.39007 4.38952 8.77904 
130 1 6.58423 6.58428 8.77904 
131 1 6.58423 4.38952 10.9738 
132 1 4.39007 6.58428 10.9738 
133 1 4.39007 4.38952 13.1686 
134 1 6.58423 6.58428 13.1686 
135 1 6.58423 4.38952 15.3633 
136 1 4.39007 6.58428 15.3633 
137 1 4.39007 4.38952 17.5581 
138 1 6.58423 6.58428 17.5581 
139 1 6.58423 4.38952 19.7528 
140 1 4.39007 6.58428 19.7528 
141 1 4.39007 8.77904 -7.44219e-17 
142 1 6.58423 10.9738 -7.31282e-16 
143 1 6.58423 8.77904 2.19476 
144 1 4.39007 10.9738 2.19476 
145 1 4.39007 8.77904 4.38952 
146 1 6.58423 10.9738 4.38952 
147 1 6.58423 8.77904 6.58428 
148 1 4.39007 10.9738 6.58428 
149 1 4.39007 8.77904 8.77904 
150 1 6.58423 10.9738 8.77904 
151 1 6.58423 8.77904 10.9738 
152 1 4.39007 10.9738 10.9738 
153 1 4.39007 8.77904 13.1686 
154 1 6.58423 10.9738 13.1686 
155 1 6.58423 8.77904 15.3633 
156 1 4.39007 10.9738 15.3633 
157 1 4.39007 8.77904 17.5581 
158 1 6.58423 10.9738 17.5581 
159 1 6.58423 8.77904 19.7528 
160 1 4.39007 10.9738 19.7528 
161 1 4.39007 13.1686 4.58986e-16 
162 1 6.58423 15.3633 7.08671e-16 
163 1 6.58423 13.1686 2.19476 
164 1 4.39007 15.3633 2.19476 
165 1 4.39007 13.1686 4.38952 
166 1 6.58423 15.3633 4.38952 
167 1 6.58423 13.1686 6.58428 
168 1 4.39007 15.3633 6.58428 
169 1 4.39007 13.1686 8.77904 
170 1 6.58423 15.3633 8.77904 
171 1 6.58423 13.1686 10.9738 
172 1 4.39007 15.3633 10.9738 
173 1 4.39007 13.1686 13.1686 
174 1 6.58423 15.3633 13.1686 
175 1 6.58423 13.1686 15.3633 
176 1 4.39007 15.3633 15.3633 
177 1 4.39007 13.1686 17.5581 
178 1 6.58423 15.3633 17.5581 
179 1 6.58423 13.1686 19.7528 
180 1 4.39007 15.3633 19.7528 
181 1 4.39007 17.5581 1.16862e-15 
182 1 6.58423 19.7528 9.02011e-17 
183 1 6.58423 17.5581 2.19476 
184 1 4.39007 19.7528 2.19476 
185 1 4.39007 17.5581 4.38952 
186 1 6.58423 19.7528 4.38952 
187 1 6.58423 17.5581 6.58428 
188 1 4.39007 19.7528 6.58428 
189 1 4.39007 17.5581 8.77904 
190 1 6.58423 19.7528 8.77904 
191 1 6.58423 17.5581 10.9738 
192 1 4.39007 19.7528 10.9738 
193 1 4.39007 17.5581 13.1686 
194 1 6.58423 19.7528 13.1686 
195 1 6.58423 17.5581 15.3633 
196 1 4.39007 19.7528 15.3633 
197 1 4.39007 17.5581 17.5581 
198 1 6.58423 19.7528 17.5581 
199 1 6.58423 17.5581 19.7528 
200 1 4.39007 19.7528 19.7528 
201 1 8.77904 2.04343e-16 3.65097e-16 
202 1 10.9738 2.19476 -1.84891e-16 
203 1 10.9738 -1.38148e-16 2.19476 
204 1 8.77904 2.19476 2.19476 
205 1 8.77904 6.34784e-16 4.38952 
206 1 10.9738 2.19476 4.38952 
207 1 10.9738 2.03785e-16 6.58428 
208 1 8.77904 2.19476 6.58428 
209 1 8.77904 5.17428e-16 8.77904 
210 1 10.9738 2.19476 8.77904 
211 1 10.9738 9.84812e-16 10.9738 
212 1 8.77904 2.19476 10.9738 
213 1 8.77904 1.16158e-15 13.1686 
214 1 10.9738 2.19476 13.1686 
215 1 10.9738 8.78399e-16 15.3633 
216 1 8.77904 2.19476 15.3633 
217 1 8.77904 8.52398e-16 17.5581 
218 1 10.9738 2.19476 17.5581 
219 1 10.9738 1.28236e-15 19.7528 
220 1 8.77904 2.19476 19.7528 
221 1 8.77904 4.38952 4.93204e-16 
222 1 10.9738 6.58428 -3.66245e-16 
223 1 10.9738 4.38952 2.19476 
224 1 8.77904 6.58428 2.19476 
225 1 8.77904 4.38952 4.38952 
226 1 10.9738 6.58428 4.38952 
227 1 10.9738 4.38952 6.58428 
228 1 8.77904 6.58428 6.58428 
229 1 8.77904 4.38952 8.77904 
230 1 10.9738 6.58428 8.77904 
231 1 10.9738 4.38952 10.9738 
232 1 8.77904 6.58428 10.9738 
233 1 8.77904 4.38952 13.1686 
234 1 10.9738 6.58428 13.1686 
235 1 10.9738 4.38952 15.3633 
236 1 8.77904 6.58428 15.3633 
237 1 8.77904 4.38952 17.5581 
238 1 10.9738 6.58428 17.5581 
239 1 10.9738 4.38952 19.7528 
240 1 8.77904 6.58428 19.7528 
241 1 8.77904 8.77904 -4.07235e-16 
242 1 10.9738 10.9738 -3.72412e-17 
243 1 10.9738 8.77904 2.19476 
244 1 8.77904 10.9738 2.19476 
245 1 8.77904 8.77904 4.38952 
246 1 10.9738 10.9738 4.38952 
247 1 10.9738 8.77904 6.58428 
248 1 8.77904 10.9738 6.58428 
249 1 8.77904 8.77904 8.77904 
250 1 10.9738 10.9738 8.77904 
251 1 10.9738 8.77904 10.9738 
252 1 8.77904 10.9738 10.9738 
253 1 8.77904 8.77904 13.1686 
254 1 10.9738 10.9738 13.1686 
255 1 10.9738 8.77904 15.3633 
256 1 8.77904 10.9738 15.3633 
257 1 8.77904 8.77904 17.5581 
258 1 10.9738 10.9738 17.5581 
259 1 10.9738 8.77904 19.7528 
260 1 8.77904 10.9738 19.7528 
261 1 8.77904 13.1686 -6.75903e-17 
262 1 10.9738 15.3633 5.06504e-16 
263 1 10.9738 13.1686 2.19476 
264 1 8.77904 15.3633 2.19476 
265 1 8.77904 13.1686 4.38952 
266 1 10.9738 15.3633 4.38952 
267 1 10.9738 13.1686 6.58428 
268 1 8.77904 15.3633 6.58428 
269 1 8.77904 13.1686 8.77904 
270 1 10.9738 15.3633 8.77904 
271 1 10.9738 13.1686 10.9738 
272 1 8.77904 15.3633 10.9738 
273 1 8.77904 13.1686 13.1686 
274 1 10.9738 15.3633 13.1686 
275 1 10.9738 13.1686 15.3633 
276 1 8.77904 15.3633 15.3633 
277 1 8.77904 13.1686 17.5581 
278 1 10.9738 15.3633 17.5581 
279 1 10.9738 13.1686 19.7528 
280 1 8.77904 15.3633 19.7528 
281 1 8.77904 17.5581 5.4169e-16 
282 1 10.9738 19.7528 -8.41554e-17 
283 1 10.9738 17.5581 2.19476 
284 1 8.77904 19.7528 2.19476 
285 1 8.77904 17.5581 4.38952 
286 1 10.9738 19.7528 4.38952 
287 1 10.9738 17.5581 6.58428 
288 1 8.77904 19.7528 6.58428 
289 1 8.77904 17.5581 8.77904 
290 1 10.9738 19.7528 8.77904 
291 1 10.9738 17.5581 10.9738 
292 1 8.77904 19.7528 10.9738 
293 1 8.77904 17.5581 13.1686 
294 1 10.9738 19.7528 13.1686 
295 1 10.9738 17.5581 15.3633 
296 1 8.77904 19.7528 15.3633 
297 1 8.77904 17.5581 17.5581 
298 1 10.9738 19.7528 17.5581 
299 1 10.9738 17.5581 19.7528 
300 1 8.77904 19.7528 19.7528 
301 1 13.1686 -4.75188e-16 -3.67213e-16 
302 1 15.3628 2.19476 9.43439e-16 
303 1 15.3628 1.06179e-15 2.19476 
304 1 13.1686 2.19476 2.19476 
305 1 13.1686 -4.35986e-17 4.38952 
306 1 15.3628 2.19476 4.38952 
307 1 15.3628 1.26474e-15 6.58428 
308 1 13.1686 2.19476 6.58428 
309 1 13.1686 2.48699e-16 8.77904 
310 1 15.3628 2.19476 8.77904 
311 1 15.3628 1.73357e-15 10.9738 
312 1 13.1686 2.19476 10.9738 
313 1 13.1686 4.48135e-16 13.1686 
314 1 15.3628 2.19476 13.1686 
315 1 15.3628 1.55412e-15 15.3633 
316 1 13.1686 2.19476 15.3633 
317 1 13.1686 1.4459e-15 17.5581 
318 1 15.3628 2.19476 17.5581 
319 1 15.3628 1.94756e-15 19.7528 
320 1 13.1686 2.19476 19.7528 
321 1 13.1686 4.38952 -3.79546e-16 
322 1 15.3628 6.58428 9.60714e-16 
323 1 15.3628 4.38952 2.19476 
324 1 13.1686 6.58428 2.19476 
325 1 13.1686 4.38952 4.38952 
326 1 15.3628 6.58428 4.38952 
327 1 15.3628 4.38952 6.58428 
328 1 13.1686 6.58428 6.58428 
329 1 13.1686 4.38952 8.77904 
330 1 15.3628 6.58428 8.77904 
331 1 15.3628 4.38952 10.9738 
332 1 13.1686 6.58428 10.9738 
333 1 13.1686 4.38952 13.1686 
334 1 15.3628 6.58428 13.1686 
335 1 15.3628 4.38952 15.3633 
336 1 13.1686 6.58428 15.3633 
337 1 13.1686 4.38952 17.5581 
338 1 15.3628 6.58428 17.5581 
339 1 15.3628 4.38952 19.7528 
340 1 13.1686 6.58428 19.7528 
341 1 13.1686 8.77904 -1.10261e-15 
342 1 15.3628 10.9738 6.04988e-16 
343 1 15.3628 8.77904 2.19476 
344 1 13.1686 10.9738 2.19476 
345 1 13.1686 8.77904 4.38952 
346 1 15.3628 10.9738 4.38952 
347 1 15.3628 8.77904 6.58428 
348 1 13.1686 10.9738 6.58428 
349 1 13.1686 8.77904 8.77904 
350 1 15.3628 10.9738 8.77904 
351 1 15.3628 8.77904 10.9738 
352 1 13.1686 10.9738 10.9738 
353 1 13.1686 8.77904 13.1686 
354 1 15.3628 10.9738 13.1686 
355 1 15.3628 8.77904 15.3633 
356 1 13.1686 10.9738 15.3633 
357 1 13.1686 8.77904 17.5581 
358 1 15.3628 10.9738 17.5581 
359 1 15.3628 8.77904 19.7528 
360 1 13.1686 10.9738 19.7528 
361 1 13.1686 13.1686 -6.9005e-16 
362 1 15.3628 15.3633 1.25671e-15 
363 1 15.3628 13.1686 2.19476 
364 1 13.1686 15.3633 2.19476 
365 1 13.1686 13.1686 4.38952 
366 1 15.3628 15.3633 4.38952 
367 1 15.3628 13.1686 6.58428 
368 1 13.1686 15.3633 6.58428 
369 1 13.1686 13.1686 8.77904 
370 1 15.3628 15.3633 8.77904 
371 1 15.3628 13.1686 10.9738 
372 1 13.1686 15.3633 10.9738 
373 1 13.1686 13.1686 13.1686 
374 1 15.3628 15.3633 13.1686 
375 1 15.3628 13.1686 15.3633 
376 1 13.1686 15.3633 15.3633 
377 1 13.1686 13.1686 17.5581 
378 1 15.3628 15.3633 17.5581 
379 1 15.3628 13.1686 19.7528 
380 1 13.1686 15.3633 19.7528 
381 1 13.1686 17.5581 9.98016e-16 
382 1 15.3628 19.7528 6.65807e-16 
383 1 15.3628 17.5581 2.19476 
384 1 13.1686 19.7528 2.19476 
385 1 13.1686 17.5581 4.38952 
386 1 15.3628 19.7528 4.38952 
387 1 15.3628 17.5581 6.58428 
388 1 13.1686 19.7528 6.58428 
389 1 13.1686 17.5581 8.77904 
390 1 15.3628 19.7528 8.77904 
391 1 15.3628 17.5581 10.9738 
392 1 13.1686 19.7528 10.9738 
393 1 13.1686 17.5581 13.1686 
394 1 15.3628 19.7528 13.1686 
395 1 15.3628 17.5581 15.3633 
396 1 13.1686 19.7528 15.3633 
397 1 13.1686 17.5581 17.5581 
398 1 15.3628 19.7528 17.5581 
399 1 15.3628 17.5581 19.7528 
400 1 13.1686 19.7528 19.7528 
401 1 17.5551 9.10233e-16 7.68765e-16 
402 1 19.7775 2.19476 7.69006e-17 
403 1 19.7775 1.40677e-16 2.19476 
404 1 17.5551 2.19476 2.19476 
405 1 17.5551 9.66206e-16 4.38952 
406 1 19.7775 2.19476 4.38952 
407 1 19.7775 6.17911e-16 6.58428 
408 1 17.5551 2.19476 6.58428 
409 1 17.5551 1.46375e-15 8.77904 
410 1 19.7775 2.19476 8.77904 
411 1 19.7775 9.0507e-16 10.9738 
412 1 17.5551 2.19476 10.9738 
413 1 17.5551 1.9318e-15 13.1686 
414 1 19.7775 2.19476 13.1686 
415 1 19.7775 1.05826e-15 15.3633 
416 1 17.5551 2.19476 15.3633 
417 1 17.5551 1.78415e-15 17.5581 
418 1 19.7775 2.19476 17.5581 
419 1 19.7775 1.22982e-15 19.7528 
420 1 17.5551 2.19476 19.7528 
421 1 17.5551 4.38952 1.08241e-15 
422 1 19.7775 6.58428 2.28767e-16 
423 1 19.7775 4.38952 2.19476 
424 1 17.5551 6.58428 2.19476 
425 1 17.5551 4.38952 4.38952 
426 1 19.7775 6.58428 4.38952 
427 1 19.7775 4.38952 6.58428 
428 1 17.5551 6.58428 6.58428 
429 1 17.5551 4.38952 8.77904 
430 1 19.7775 6.58428 8.77904 
431 1 19.7775 4.38952 10.9738 
432 1 17.5551 6.58428 10.9738 
433 1 17.5551 4.38952 13.1686 
434 1 19.7775 6.58428 13.1686 
435 1 19.7775 4.38952 15.3633 
436 1 17.5551 6.58428 15.3633 
437 1 17.5551 4.38952 17.5581 
438 1 19.7775 6.58428 17.5581 
439 1 19.7775 4.38952 19.7528 
440 1 17.5551 6.58428 19.7528 
441 1 17.5551 8.77904 3.78216e-16 
442 1 19.7775 10.9738 -1.24299e-16 
443 1 19.7775 8.77904 2.19476 
444 1 17.5551 10.9738 2.19476 
445 1 17.5551 8.77904 4.38952 
446 1 19.7775 10.9738 4.38952 