thermo_style    custom step atoms pe ke etotal press vol lx ly lz
thermo_modify   line one format float %.16g
min_style       cg
min_modify      line quadratic
minimize        1.0e-8 1.0e-8 100000 1000000
WARNING: Resetting reneighboring criteria during minimization (../min.cpp:168)
Neighbor list info ...
  2 neighbor list requests
  update every 1 steps, delay 0 steps, check yes
  master list distance cutoff = 6.8
Memory usage per processor = 9.94947 Mbytes
Step Atoms PotEng KinEng TotEng Press Volume Lx Ly Lz 
       0      500 -824.3037736632976 0 -824.3037736632976 -472.6522705463337 10614.3855660059 22.035391025994 21.9476006235 21.9476006235 
      11      500 -824.4638301160949 0 -824.4638301160949 -536.4602896110835 10614.3855660059 22.035391025994 21.9476006235 21.9476006235 
Loop time of 0.175187 on 1 procs for 11 steps with 500 atoms

Minimization stats:
  Stopping criterion = energy tolerance
  Energy initial, next-to-last, final = 
        -824.303773663     -824.463828811     -824.463830116
  Force two-norm initial, final = 0.889814 0.00140474
  Force max component initial, final = 0.0883149 0.000102235
  Final line search alpha, max atom move = 1 0.000102235
  Iterations, force evaluations = 11 20

Pair  time (%) = 0.168101 (95.955)
Neigh time (%) = 0 (0)
Comm  time (%) = 0.000316143 (0.18046)
Outpt time (%) = 0.00585938 (3.34464)
Other time (%) = 0.000910759 (0.519878)

Nlocal:    500 ave 500 max 500 min
Histogram: 1 0 0 0 0 0 0 0 0 0
Nghost:    1956 ave 1956 max 1956 min
Histogram: 1 0 0 0 0 0 0 0 0 0
Neighs:    13500 ave 13500 max 13500 min
Histogram: 1 0 0 0 0 0 0 0 0 0
FullNghs:  27000 ave 27000 max 27000 min
Histogram: 1 0 0 0 0 0 0 0 0 0

Total # of neighbors = 27000
Ave neighs/atom = 54
Neighbor list builds = 0
Dangerous builds = 0
