 
 250 atoms 
 
 1 atom types
 0.00000000000000000000 17.43640218231356087131 xlo xhi
 0.00000000000000000000 17.43643705508305430385 ylo yhi
 0.00000000000000000000 17.43629756414457787628 zlo zhi
 0.00000000000000106767 0.00000000000000106767 0.06974546923845782731 xy xz yz
 
 Atoms 
 
	1	1	0.00000000000000000000	0.00000000000000000000	0.00000000000000000000
	2	1	1.74364021823135617595	1.74712400442330473282	1.74014248994101028423
	3	1	0.00000000000000021311	0.00697454692384604207	3.48725951285681423641
	4	1	1.74364021823135639799	1.75409855134715075842	5.22740200279782474269
	5	1	0.00000000000000042622	0.01394909384769208414	6.97451902571362847283
	6	1	1.74364021823135662004	1.76107309827099678401	8.71466151565463853501
	7	1	0.00000000000000063933	0.02092364077153812535	10.46177853857044226515
	8	1	1.74364021823135684208	1.76804764519484280960	12.20192102851145321551
	9	1	0.00000000000000085243	0.02789818769538416829	13.94903805142725694566
	10	1	1.74364021823135706413	1.77502219211868883519	15.68918054136826611966
	11	1	0.00000000000000021311	3.48727346192276321801	-0.00697453297479352571
	12	1	1.74364021823135639799	5.23439746634606883902	1.73316795696621683831
	13	1	0.00000000000000042622	3.49424800884660946565	3.48028497988202056845
	14	1	1.74364021823135662004	5.24137201326991508665	5.22042746982303107472
	15	1	0.00000000000000063933	3.50122255577045526920	6.96754449273883480487
	16	1	1.74364021823135684208	5.24834656019376044611	8.70768698267984397887
	17	1	0.00000000000000085243	3.50819710269430151683	10.45480400559564948537
	18	1	1.74364021823135706413	5.25532110711760669375	12.19494649553666043573
	19	1	0.00000000000000106554	3.51517164961814732038	13.94206351845246238952
	20	1	1.74364021823135728617	5.26229565404145294139	15.68220600839347156352
	21	1	0.00000000000000042622	6.97454692384552643603	-0.01394906594958705143
	22	1	1.74364021823135662004	8.72167092826883028067	1.72619342399142317035
	23	1	0.00000000000000063933	6.98152147076937268366	3.47331044690722690049
	24	1	1.74364021823135684208	8.72864547519267652831	5.21345293684823740676
	25	1	0.00000000000000085243	6.98849601769321893130	6.96056995976404113691
	26	1	1.74364021823135706413	8.73562002211652277595	8.70071244970505119909
	27	1	0.00000000000000106554	6.99547056461706429076	10.44782947262085492923
	28	1	1.74364021823135728617	8.74259456904036902358	12.18797196256186587959
	29	1	0.00000000000000127865	7.00244511154091053839	13.93508898547766960974
	30	1	1.74364021823135750822	8.74956911596421349486	15.67523147541867878374
	31	1	0.00000000000000063933	10.46182038576829143040	-0.02092359892438058061
	32	1	1.74364021823135684208	12.20894439019159527504	1.71921889101662972443
	33	1	0.00000000000000085243	10.46879493269213767803	3.46633591393243367662
	34	1	1.74364021823135706413	12.21591893711544152268	5.20647840387344373880
	35	1	0.00000000000000106554	10.47576947961598392567	6.95359542678924746895
	36	1	1.74364021823135728617	12.22289348403928777032	8.69373791673025841931
	37	1	0.00000000000000127865	10.48274402653983017331	10.44085493964606214945
	38	1	1.74364021823135750822	12.22986803096313401795	12.18099742958707309981
	39	1	0.00000000000000149176	10.48971857346367642094	13.92811445250287505360
	40	1	1.74364021823135773026	12.23684257788697848923	15.66825694244388422760
	41	1	0.00000000000000085243	13.94909384769105287205	-0.02789813189917410285
	42	1	1.74364021823135706413	15.69621785211435671670	1.71224435804183627852
	43	1	0.00000000000000106554	13.95606839461489911969	3.45936138095764000866
	44	1	1.74364021823135728617	15.70319239903820296433	5.19950387089865007084
	45	1	0.00000000000000127865	13.96304294153874536732	6.94662089381445380099
	46	1	1.74364021823135750822	15.71016694596204921197	8.68676338375546386317
	47	1	0.00000000000000149176	13.97001748846259161496	10.43388040667126936967
	48	1	1.74364021823135773026	15.71714149288589545961	12.17402289661228032003
	49	1	0.00000000000000170487	13.97699203538643786260	13.92113991952808227381
	50	1	1.74364021823135795231	15.72411603980973993089	15.66128240946909144782
	51	1	3.48728043646271235190	0.00000000000000000000	0.00000000000000000000
	52	1	5.23092065469406897193	1.74712400442330473282	1.74014248994101028423
	53	1	3.48728043646271235190	0.00697454692384604207	3.48725951285681423641
	54	1	5.23092065469406897193	1.75409855134715075842	5.22740200279782474269
	55	1	3.48728043646271279599	0.01394909384769208414	6.97451902571362847283
	56	1	5.23092065469406986011	1.76107309827099678401	8.71466151565463853501
	57	1	3.48728043646271279599	0.02092364077153812535	10.46177853857044226515
	58	1	5.23092065469406986011	1.76804764519484280960	12.20192102851145321551
	59	1	3.48728043646271324008	0.02789818769538416829	13.94903805142725694566
	60	1	5.23092065469406986011	1.77502219211868883519	15.68918054136826611966
	61	1	3.48728043646271235190	3.48727346192276321801	-0.00697453297479352571
	62	1	5.23092065469406897193	5.23439746634606883902	1.73316795696621683831
	63	1	3.48728043646271235190	3.49424800884660946565	3.48028497988202056845
	64	1	5.23092065469406897193	5.24137201326991508665	5.22042746982303107472
	65	1	3.48728043646271279599	3.50122255577045526920	6.96754449273883480487
	66	1	5.23092065469406986011	5.24834656019376044611	8.70768698267984397887
	67	1	3.48728043646271279599	3.50819710269430151683	10.45480400559564948537
	68	1	5.23092065469406986011	5.25532110711760669375	12.19494649553666043573
	69	1	3.48728043646271324008	3.51517164961814732038	13.94206351845246238952
	70	1	5.23092065469406986011	5.26229565404145294139	15.68220600839347156352
	71	1	3.48728043646271279599	6.97454692384552643603	-0.01394906594958705143
	72	1	5.23092065469406986011	8.72167092826883028067	1.72619342399142317035
	73	1	3.48728043646271279599	6.98152147076937268366	3.47331044690722690049
	74	1	5.23092065469406986011	8.72864547519267652831	5.21345293684823740676
	75	1	3.48728043646271324008	6.98849601769321893130	6.96056995976404113691
	76	1	5.23092065469407074829	8.73562002211652277595	8.70071244970505119909
	77	1	3.48728043646271324008	6.99547056461706429076	10.44782947262085492923
	78	1	5.23092065469407074829	8.74259456904036902358	12.18797196256186587959
	79	1	3.48728043646271368416	7.00244511154091053839	13.93508898547766960974
	80	1	5.23092065469407074829	8.74956911596421349486	15.67523147541867878374
	81	1	3.48728043646271279599	10.46182038576829143040	-0.02092359892438058061
	82	1	5.23092065469406986011	12.20894439019159527504	1.71921889101662972443
	83	1	3.48728043646271279599	10.46879493269213767803	3.46633591393243367662
	84	1	5.23092065469406986011	12.21591893711544152268	5.20647840387344373880
	85	1	3.48728043646271324008	10.47576947961598392567	6.95359542678924746895
	86	1	5.23092065469407074829	12.22289348403928777032	8.69373791673025841931
	87	1	3.48728043646271324008	10.48274402653983017331	10.44085493964606214945
	88	1	5.23092065469407074829	12.22986803096313401795	12.18099742958707309981
	89	1	3.48728043646271368416	10.48971857346367642094	13.92811445250287505360
	90	1	5.23092065469407074829	12.23684257788697848923	15.66825694244388422760
	91	1	3.48728043646271324008	13.94909384769105287205	-0.02789813189917410285
	92	1	5.23092065469406986011	15.69621785211435671670	1.71224435804183627852
	93	1	3.48728043646271324008	13.95606839461489911969	3.45936138095764000866
	94	1	5.23092065469406986011	15.70319239903820296433	5.19950387089865007084
	95	1	3.48728043646271368416	13.96304294153874536732	6.94662089381445380099
	96	1	5.23092065469407074829	15.71016694596204921197	8.68676338375546386317
	97	1	3.48728043646271368416	13.97001748846259161496	10.43388040667126936967
	98	1	5.23092065469407074829	15.71714149288589545961	12.17402289661228032003
	99	1	3.48728043646271412825	13.97699203538643786260	13.92113991952808227381
	100	1	5.23092065469407074829	15.72411603980973993089	15.66128240946909144782
	101	1	6.97456087292542470379	0.00000000000000000000	0.00000000000000000000
	102	1	8.71820109115678043565	1.74712400442330473282	1.74014248994101028423
	103	1	6.97456087292542470379	0.00697454692384604207	3.48725951285681423641
	104	1	8.71820109115678043565	1.75409855134715075842	5.22740200279782474269
	105	1	6.97456087292542470379	0.01394909384769208414	6.97451902571362847283
	106	1	8.71820109115678043565	1.76107309827099678401	8.71466151565463853501
	107	1	6.97456087292542559197	0.02092364077153812535	10.46177853857044226515
	108	1	8.71820109115678043565	1.76804764519484280960	12.20192102851145321551
	109	1	6.97456087292542559197	0.02789818769538416829	13.94903805142725694566
	110	1	8.71820109115678221201	1.77502219211868883519	15.68918054136826611966
	111	1	6.97456087292542470379	3.48727346192276321801	-0.00697453297479352571
	112	1	8.71820109115678043565	5.23439746634606883902	1.73316795696621683831
	113	1	6.97456087292542470379	3.49424800884660946565	3.48028497988202056845
	114	1	8.71820109115678043565	5.24137201326991508665	5.22042746982303107472
	115	1	6.97456087292542470379	3.50122255577045526920	6.96754449273883480487
	116	1	8.71820109115678043565	5.24834656019376044611	8.70768698267984397887
	117	1	6.97456087292542559197	3.50819710269430151683	10.45480400559564948537
	118	1	8.71820109115678043565	5.25532110711760669375	12.19494649553666043573
	119	1	6.97456087292542559197	3.51517164961814732038	13.94206351845246238952
	120	1	8.71820109115678221201	5.26229565404145294139	15.68220600839347156352
	121	1	6.97456087292542470379	6.97454692384552643603	-0.01394906594958705143
	122	1	8.71820109115678043565	8.72167092826883028067	1.72619342399142317035
	123	1	6.97456087292542470379	6.98152147076937268366	3.47331044690722690049
	124	1	8.71820109115678043565	8.72864547519267652831	5.21345293684823740676
	125	1	6.97456087292542470379	6.98849601769321893130	6.96056995976404113691
	126	1	8.71820109115678043565	8.73562002211652277595	8.70071244970505119909
	127	1	6.97456087292542559197	6.99547056461706429076	10.44782947262085492923
	128	1	8.71820109115678043565	8.74259456904036902358	12.18797196256186587959
	129	1	6.97456087292542559197	7.00244511154091053839	13.93508898547766960974
	130	1	8.71820109115678221201	8.74956911596421349486	15.67523147541867878374
	131	1	6.97456087292542559197	10.46182038576829143040	-0.02092359892438058061
	132	1	8.71820109115678043565	12.20894439019159527504	1.71921889101662972443
	133	1	6.97456087292542559197	10.46879493269213767803	3.46633591393243367662
	134	1	8.71820109115678043565	12.21591893711544152268	5.20647840387344373880
	135	1	6.97456087292542559197	10.47576947961598392567	6.95359542678924746895
	136	1	8.71820109115678043565	12.22289348403928777032	8.69373791673025841931
	137	1	6.97456087292542648015	10.48274402653983017331	10.44085493964606214945
	138	1	8.71820109115678043565	12.22986803096313401795	12.18099742958707309981
	139	1	6.97456087292542648015	10.48971857346367642094	13.92811445250287505360
	140	1	8.71820109115678221201	12.23684257788697848923	15.66825694244388422760
	141	1	6.97456087292542559197	13.94909384769105287205	-0.02789813189917410285
	142	1	8.71820109115678221201	15.69621785211435671670	1.71224435804183627852
	143	1	6.97456087292542559197	13.95606839461489911969	3.45936138095764000866
	144	1	8.71820109115678221201	15.70319239903820296433	5.19950387089865007084
	145	1	6.97456087292542559197	13.96304294153874536732	6.94662089381445380099
	146	1	8.71820109115678221201	15.71016694596204921197	8.68676338375546386317
	147	1	6.97456087292542648015	13.97001748846259161496	10.43388040667126936967
	148	1	8.71820109115678221201	15.71714149288589545961	12.17402289661228032003
	149	1	6.97456087292542648015	13.97699203538643786260	13.92113991952808227381
	150	1	8.71820109115678398837	15.72411603980973993089	15.66128240946909144782
	151	1	10.46184130938813794387	0.00000000000000000000	0.00000000000000000000
	152	1	12.20548152761949367573	1.74712400442330473282	1.74014248994101028423
	153	1	10.46184130938813794387	0.00697454692384604207	3.48725951285681423641
	154	1	12.20548152761949367573	1.75409855134715075842	5.22740200279782474269
	155	1	10.46184130938813794387	0.01394909384769208414	6.97451902571362847283
	156	1	12.20548152761949367573	1.76107309827099678401	8.71466151565463853501
	157	1	10.46184130938813794387	0.02092364077153812535	10.46177853857044226515
	158	1	12.20548152761949367573	1.76804764519484280960	12.20192102851145321551
	159	1	10.46184130938813794387	0.02789818769538416829	13.94903805142725694566
	160	1	12.20548152761949545209	1.77502219211868883519	15.68918054136826611966
	161	1	10.46184130938813794387	3.48727346192276321801	-0.00697453297479352571
	162	1	12.20548152761949367573	5.23439746634606883902	1.73316795696621683831
	163	1	10.46184130938813794387	3.49424800884660946565	3.48028497988202056845
	164	1	12.20548152761949367573	5.24137201326991508665	5.22042746982303107472
	165	1	10.46184130938813794387	3.50122255577045526920	6.96754449273883480487
	166	1	12.20548152761949367573	5.24834656019376044611	8.70768698267984397887
	167	1	10.46184130938813794387	3.50819710269430151683	10.45480400559564948537
	168	1	12.20548152761949367573	5.25532110711760669375	12.19494649553666043573
	169	1	10.46184130938813794387	3.51517164961814732038	13.94206351845246238952
	170	1	12.20548152761949545209	5.26229565404145294139	15.68220600839347156352
	171	1	10.46184130938813794387	6.97454692384552643603	-0.01394906594958705143
	172	1	12.20548152761949367573	8.72167092826883028067	1.72619342399142317035
	173	1	10.46184130938813794387	6.98152147076937268366	3.47331044690722690049
	174	1	12.20548152761949367573	8.72864547519267652831	5.21345293684823740676
	175	1	10.46184130938813794387	6.98849601769321893130	6.96056995976404113691
	176	1	12.20548152761949367573	8.73562002211652277595	8.70071244970505119909
	177	1	10.46184130938813794387	6.99547056461706429076	10.44782947262085492923
	178	1	12.20548152761949367573	8.74259456904036902358	12.18797196256186587959
	179	1	10.46184130938813794387	7.00244511154091053839	13.93508898547766960974
	180	1	12.20548152761949545209	8.74956911596421349486	15.67523147541867878374
	181	1	10.46184130938813794387	10.46182038576829143040	-0.02092359892438058061
	182	1	12.20548152761949367573	12.20894439019159527504	1.71921889101662972443
	183	1	10.46184130938813794387	10.46879493269213767803	3.46633591393243367662
	184	1	12.20548152761949367573	12.21591893711544152268	5.20647840387344373880
	185	1	10.46184130938813794387	10.47576947961598392567	6.95359542678924746895
	186	1	12.20548152761949367573	12.22289348403928777032	8.69373791673025841931
	187	1	10.46184130938813794387	10.48274402653983017331	10.44085493964606214945
	188	1	12.20548152761949367573	12.22986803096313401795	12.18099742958707309981
	189	1	10.46184130938813794387	10.48971857346367642094	13.92811445250287505360
	190	1	12.20548152761949545209	12.23684257788697848923	15.66825694244388422760
	191	1	10.46184130938813794387	13.94909384769105287205	-0.02789813189917410285
	192	1	12.20548152761949545209	15.69621785211435671670	1.71224435804183627852
	193	1	10.46184130938813794387	13.95606839461489911969	3.45936138095764000866
	194	1	12.20548152761949545209	15.70319239903820296433	5.19950387089865007084
	195	1	10.46184130938813794387	13.96304294153874536732	6.94662089381445380099
	196	1	12.20548152761949545209	15.71016694596204921197	8.68676338375546386317
	197	1	10.46184130938813794387	13.97001748846259161496	10.43388040667126936967
	198	1	12.20548152761949545209	15.71714149288589545961	12.17402289661228032003
	199	1	10.46184130938813794387	13.97699203538643786260	13.92113991952808227381
	200	1	12.20548152761949722844	15.72411603980973993089	15.66128240946909144782
	201	1	13.94912174585084940759	0.00000000000000000000	0.00000000000000000000
	202	1	15.69276196408220513945	1.74712400442330473282	1.74014248994101028423
	203	1	13.94912174585084940759	0.00697454692384604207	3.48725951285681423641
	204	1	15.69276196408220513945	1.75409855134715075842	5.22740200279782474269
	205	1	13.94912174585084940759	0.01394909384769208414	6.97451902571362847283
	206	1	15.69276196408220513945	1.76107309827099678401	8.71466151565463853501
	207	1	13.94912174585084940759	0.02092364077153812535	10.46177853857044226515
	208	1	15.69276196408220513945	1.76804764519484280960	12.20192102851145321551
	209	1	13.94912174585084940759	0.02789818769538416829	13.94903805142725694566
	210	1	15.69276196408220691580	1.77502219211868883519	15.68918054136826611966
	211	1	13.94912174585084940759	3.48727346192276321801	-0.00697453297479352571
	212	1	15.69276196408220513945	5.23439746634606883902	1.73316795696621683831
	213	1	13.94912174585084940759	3.49424800884660946565	3.48028497988202056845
	214	1	15.69276196408220513945	5.24137201326991508665	5.22042746982303107472
	215	1	13.94912174585084940759	3.50122255577045526920	6.96754449273883480487
	216	1	15.69276196408220513945	5.24834656019376044611	8.70768698267984397887
	217	1	13.94912174585084940759	3.50819710269430151683	10.45480400559564948537
	218	1	15.69276196408220513945	5.25532110711760669375	12.19494649553666043573
	219	1	13.94912174585084940759	3.51517164961814732038	13.94206351845246238952
	220	1	15.69276196408220691580	5.26229565404145294139	15.68220600839347156352
	221	1	13.94912174585084940759	6.97454692384552643603	-0.01394906594958705143
	222	1	15.69276196408220513945	8.72167092826883028067	1.72619342399142317035
	223	1	13.94912174585084940759	6.98152147076937268366	3.47331044690722690049
	224	1	15.69276196408220513945	8.72864547519267652831	5.21345293684823740676
	225	1	13.94912174585084940759	6.98849601769321893130	6.96056995976404113691
	226	1	15.69276196408220513945	8.73562002211652277595	8.70071244970505119909
	227	1	13.94912174585084940759	6.99547056461706429076	10.44782947262085492923
	228	1	15.69276196408220513945	8.74259456904036902358	12.18797196256186587959
	229	1	13.94912174585084940759	7.00244511154091053839	13.93508898547766960974
	230	1	15.69276196408220691580	8.74956911596421349486	15.67523147541867878374
	231	1	13.94912174585084940759	10.46182038576829143040	-0.02092359892438058061
	232	1	15.69276196408220513945	12.20894439019159527504	1.71921889101662972443
	233	1	13.94912174585084940759	10.46879493269213767803	3.46633591393243367662
	234	1	15.69276196408220513945	12.21591893711544152268	5.20647840387344373880
	235	1	13.94912174585084940759	10.47576947961598392567	6.95359542678924746895
	236	1	15.69276196408220513945	12.22289348403928777032	8.69373791673025841931
	237	1	13.94912174585084940759	10.48274402653983017331	10.44085493964606214945
	238	1	15.69276196408220513945	12.22986803096313401795	12.18099742958707309981
	239	1	13.94912174585084940759	10.48971857346367642094	13.92811445250287505360
	240	1	15.69276196408220691580	12.23684257788697848923	15.66825694244388422760
	241	1	13.94912174585084940759	13.94909384769105287205	-0.02789813189917410285
	242	1	15.69276196408220691580	15.69621785211435671670	1.71224435804183627852
	243	1	13.94912174585084940759	13.95606839461489911969	3.45936138095764000866
	244	1	15.69276196408220691580	15.70319239903820296433	5.19950387089865007084
	245	1	13.94912174585084940759	13.96304294153874536732	6.94662089381445380099
	246	1	15.69276196408220691580	15.71016694596204921197	8.68676338375546386317
	247	1	13.94912174585084940759	13.97001748846259161496	10.43388040667126936967
	248	1	15.69276196408220691580	15.71714149288589545961	12.17402289661228032003
	249	1	13.94912174585084940759	13.97699203538643786260	13.92113991952808227381
	250	1	15.69276196408220869216	15.72411603980973993089	15.66128240946909144782
