 
 216 atoms 
 
 1 atom types
 0.00000000000000000000 10.46184130938813794387 xlo xhi
 0.00000000000000000000 10.46184130938813794387 ylo yhi
 0.00000000000000000000 10.46184130938813794387 zlo zhi
 0.00000000000000000000 0.00000000000000000000 0.00000000000000000000 xy xz yz
 
 Atoms 
 
	1	1	0.00000000000000000000	0.00000000000000000000	0.00000000000000000000
	2	1	1.74364021823135617595	1.74364021823135617595	0.00000000000000000000
	3	1	1.74364021823135617595	0.00000000000000000000	1.74364021823135617595
	4	1	0.00000000000000000000	1.74364021823135617595	1.74364021823135617595
	5	1	0.87182010911567808797	0.87182010911567808797	0.87182010911567808797
	6	1	2.61546032734703448597	2.61546032734703448597	0.87182010911567808797
	7	1	2.61546032734703448597	0.87182010911567808797	2.61546032734703448597
	8	1	0.87182010911567808797	2.61546032734703448597	2.61546032734703448597
	9	1	0.00000000000000000000	0.00000000000000000000	3.48728043646271235190
	10	1	1.74364021823135617595	1.74364021823135617595	3.48728043646271235190
	11	1	1.74364021823135617595	0.00000000000000000000	5.23092065469406897193
	12	1	0.00000000000000000000	1.74364021823135617595	5.23092065469406897193
	13	1	0.87182010911567808797	0.87182010911567808797	4.35910054557839021783
	14	1	2.61546032734703448597	2.61546032734703448597	4.35910054557839021783
	15	1	2.61546032734703448597	0.87182010911567808797	6.10274076380974683786
	16	1	0.87182010911567808797	2.61546032734703448597	6.10274076380974683786
	17	1	0.00000000000000000000	0.00000000000000000000	6.97456087292542470379
	18	1	1.74364021823135617595	1.74364021823135617595	6.97456087292542470379
	19	1	1.74364021823135617595	0.00000000000000000000	8.71820109115678043565
	20	1	0.00000000000000000000	1.74364021823135617595	8.71820109115678043565
	21	1	0.87182010911567808797	0.87182010911567808797	7.84638098204110256972
	22	1	2.61546032734703448597	2.61546032734703448597	7.84638098204110256972
	23	1	2.61546032734703448597	0.87182010911567808797	9.59002120027246007794
	24	1	0.87182010911567808797	2.61546032734703448597	9.59002120027246007794
	25	1	0.00000000000000000000	3.48728043646271235190	0.00000000000000000000
	26	1	1.74364021823135617595	5.23092065469406897193	0.00000000000000000000
	27	1	1.74364021823135617595	3.48728043646271235190	1.74364021823135617595
	28	1	0.00000000000000000000	5.23092065469406897193	1.74364021823135617595
	29	1	0.87182010911567808797	4.35910054557839021783	0.87182010911567808797
	30	1	2.61546032734703448597	6.10274076380974683786	0.87182010911567808797
	31	1	2.61546032734703448597	4.35910054557839021783	2.61546032734703448597
	32	1	0.87182010911567808797	6.10274076380974683786	2.61546032734703448597
	33	1	0.00000000000000000000	3.48728043646271235190	3.48728043646271235190
	34	1	1.74364021823135617595	5.23092065469406897193	3.48728043646271235190
	35	1	1.74364021823135617595	3.48728043646271235190	5.23092065469406897193
	36	1	0.00000000000000000000	5.23092065469406897193	5.23092065469406897193
	37	1	0.87182010911567808797	4.35910054557839021783	4.35910054557839021783
	38	1	2.61546032734703448597	6.10274076380974683786	4.35910054557839021783
	39	1	2.61546032734703448597	4.35910054557839021783	6.10274076380974683786
	40	1	0.87182010911567808797	6.10274076380974683786	6.10274076380974683786
	41	1	0.00000000000000000000	3.48728043646271235190	6.97456087292542470379
	42	1	1.74364021823135617595	5.23092065469406897193	6.97456087292542470379
	43	1	1.74364021823135617595	3.48728043646271235190	8.71820109115678043565
	44	1	0.00000000000000000000	5.23092065469406897193	8.71820109115678043565
	45	1	0.87182010911567808797	4.35910054557839021783	7.84638098204110256972
	46	1	2.61546032734703448597	6.10274076380974683786	7.84638098204110256972
	47	1	2.61546032734703448597	4.35910054557839021783	9.59002120027246007794
	48	1	0.87182010911567808797	6.10274076380974683786	9.59002120027246007794
	49	1	0.00000000000000000000	6.97456087292542470379	0.00000000000000000000
	50	1	1.74364021823135617595	8.71820109115678043565	0.00000000000000000000
	51	1	1.74364021823135617595	6.97456087292542470379	1.74364021823135617595
	52	1	0.00000000000000000000	8.71820109115678043565	1.74364021823135617595
	53	1	0.87182010911567808797	7.84638098204110256972	0.87182010911567808797
	54	1	2.61546032734703448597	9.59002120027246007794	0.87182010911567808797
	55	1	2.61546032734703448597	7.84638098204110256972	2.61546032734703448597
	56	1	0.87182010911567808797	9.59002120027246007794	2.61546032734703448597
	57	1	0.00000000000000000000	6.97456087292542470379	3.48728043646271235190
	58	1	1.74364021823135617595	8.71820109115678043565	3.48728043646271235190
	59	1	1.74364021823135617595	6.97456087292542470379	5.23092065469406897193
	60	1	0.00000000000000000000	8.71820109115678043565	5.23092065469406897193
	61	1	0.87182010911567808797	7.84638098204110256972	4.35910054557839021783
	62	1	2.61546032734703448597	9.59002120027246007794	4.35910054557839021783
	63	1	2.61546032734703448597	7.84638098204110256972	6.10274076380974683786
	64	1	0.87182010911567808797	9.59002120027246007794	6.10274076380974683786
	65	1	0.00000000000000000000	6.97456087292542470379	6.97456087292542470379
	66	1	1.74364021823135617595	8.71820109115678043565	6.97456087292542470379
	67	1	1.74364021823135617595	6.97456087292542470379	8.71820109115678043565
	68	1	0.00000000000000000000	8.71820109115678043565	8.71820109115678043565
	69	1	0.87182010911567808797	7.84638098204110256972	7.84638098204110256972
	70	1	2.61546032734703448597	9.59002120027246007794	7.84638098204110256972
	71	1	2.61546032734703448597	7.84638098204110256972	9.59002120027246007794
	72	1	0.87182010911567808797	9.59002120027246007794	9.59002120027246007794
	73	1	3.48728043646271235190	0.00000000000000000000	0.00000000000000000000
	74	1	5.23092065469406897193	1.74364021823135617595	0.00000000000000000000
	75	1	5.23092065469406897193	0.00000000000000000000	1.74364021823135617595
	76	1	3.48728043646271235190	1.74364021823135617595	1.74364021823135617595
	77	1	4.35910054557839021783	0.87182010911567808797	0.87182010911567808797
	78	1	6.10274076380974683786	2.61546032734703448597	0.87182010911567808797
	79	1	6.10274076380974683786	0.87182010911567808797	2.61546032734703448597
	80	1	4.35910054557839021783	2.61546032734703448597	2.61546032734703448597
	81	1	3.48728043646271235190	0.00000000000000000000	3.48728043646271235190
	82	1	5.23092065469406897193	1.74364021823135617595	3.48728043646271235190
	83	1	5.23092065469406897193	0.00000000000000000000	5.23092065469406897193
	84	1	3.48728043646271235190	1.74364021823135617595	5.23092065469406897193
	85	1	4.35910054557839021783	0.87182010911567808797	4.35910054557839021783
	86	1	6.10274076380974683786	2.61546032734703448597	4.35910054557839021783
	87	1	6.10274076380974683786	0.87182010911567808797	6.10274076380974683786
	88	1	4.35910054557839021783	2.61546032734703448597	6.10274076380974683786
	89	1	3.48728043646271235190	0.00000000000000000000	6.97456087292542470379
	90	1	5.23092065469406897193	1.74364021823135617595	6.97456087292542470379
	91	1	5.23092065469406897193	0.00000000000000000000	8.71820109115678043565
	92	1	3.48728043646271235190	1.74364021823135617595	8.71820109115678043565
	93	1	4.35910054557839021783	0.87182010911567808797	7.84638098204110256972
	94	1	6.10274076380974683786	2.61546032734703448597	7.84638098204110256972
	95	1	6.10274076380974683786	0.87182010911567808797	9.59002120027246007794
	96	1	4.35910054557839021783	2.61546032734703448597	9.59002120027246007794
	97	1	3.48728043646271235190	3.48728043646271235190	0.00000000000000000000
	98	1	5.23092065469406897193	5.23092065469406897193	0.00000000000000000000
	99	1	5.23092065469406897193	3.48728043646271235190	1.74364021823135617595
	100	1	3.48728043646271235190	5.23092065469406897193	1.74364021823135617595
	101	1	4.35910054557839021783	4.35910054557839021783	0.87182010911567808797
	102	1	6.10274076380974683786	6.10274076380974683786	0.87182010911567808797
	103	1	6.10274076380974683786	4.35910054557839021783	2.61546032734703448597
	104	1	4.35910054557839021783	6.10274076380974683786	2.61546032734703448597
	105	1	3.48728043646271235190	3.48728043646271235190	3.48728043646271235190
	106	1	5.23092065469406897193	5.23092065469406897193	3.48728043646271235190
	107	1	5.23092065469406897193	3.48728043646271235190	5.23092065469406897193
	108	1	3.48728043646271235190	5.23092065469406897193	5.23092065469406897193
	109	1	4.35910054557839021783	4.35910054557839021783	4.35910054557839021783
	110	1	6.10274076380974683786	6.10274076380974683786	4.35910054557839021783
	111	1	6.10274076380974683786	4.35910054557839021783	6.10274076380974683786
	112	1	4.35910054557839021783	6.10274076380974683786	6.10274076380974683786
	113	1	3.48728043646271235190	3.48728043646271235190	6.97456087292542470379
	114	1	5.23092065469406897193	5.23092065469406897193	6.97456087292542470379
	115	1	5.23092065469406897193	3.48728043646271235190	8.71820109115678043565
	116	1	3.48728043646271235190	5.23092065469406897193	8.71820109115678043565
	117	1	4.35910054557839021783	4.35910054557839021783	7.84638098204110256972
	118	1	6.10274076380974683786	6.10274076380974683786	7.84638098204110256972
	119	1	6.10274076380974683786	4.35910054557839021783	9.59002120027246007794
	120	1	4.35910054557839021783	6.10274076380974683786	9.59002120027246007794
	121	1	3.48728043646271235190	6.97456087292542470379	0.00000000000000000000
	122	1	5.23092065469406897193	8.71820109115678043565	0.00000000000000000000
	123	1	5.23092065469406897193	6.97456087292542470379	1.74364021823135617595
	124	1	3.48728043646271235190	8.71820109115678043565	1.74364021823135617595
	125	1	4.35910054557839021783	7.84638098204110256972	0.87182010911567808797
	126	1	6.10274076380974683786	9.59002120027246007794	0.87182010911567808797
	127	1	6.10274076380974683786	7.84638098204110256972	2.61546032734703448597
	128	1	4.35910054557839021783	9.59002120027246007794	2.61546032734703448597
	129	1	3.48728043646271235190	6.97456087292542470379	3.48728043646271235190
	130	1	5.23092065469406897193	8.71820109115678043565	3.48728043646271235190
	131	1	5.23092065469406897193	6.97456087292542470379	5.23092065469406897193
	132	1	3.48728043646271235190	8.71820109115678043565	5.23092065469406897193
	133	1	4.35910054557839021783	7.84638098204110256972	4.35910054557839021783
	134	1	6.10274076380974683786	9.59002120027246007794	4.35910054557839021783
	135	1	6.10274076380974683786	7.84638098204110256972	6.10274076380974683786
	136	1	4.35910054557839021783	9.59002120027246007794	6.10274076380974683786
	137	1	3.48728043646271235190	6.97456087292542470379	6.97456087292542470379
	138	1	5.23092065469406897193	8.71820109115678043565	6.97456087292542470379
	139	1	5.23092065469406897193	6.97456087292542470379	8.71820109115678043565
	140	1	3.48728043646271235190	8.71820109115678043565	8.71820109115678043565
	141	1	4.35910054557839021783	7.84638098204110256972	7.84638098204110256972
	142	1	6.10274076380974683786	9.59002120027246007794	7.84638098204110256972
	143	1	6.10274076380974683786	7.84638098204110256972	9.59002120027246007794
	144	1	4.35910054557839021783	9.59002120027246007794	9.59002120027246007794
	145	1	6.97456087292542470379	0.00000000000000000000	0.00000000000000000000
	146	1	8.71820109115678043565	1.74364021823135617595	0.00000000000000000000
	147	1	8.71820109115678043565	0.00000000000000000000	1.74364021823135617595
	148	1	6.97456087292542470379	1.74364021823135617595	1.74364021823135617595
	149	1	7.84638098204110256972	0.87182010911567808797	0.87182010911567808797
	150	1	9.59002120027246007794	2.61546032734703448597	0.87182010911567808797
	151	1	9.59002120027246007794	0.87182010911567808797	2.61546032734703448597
	152	1	7.84638098204110256972	2.61546032734703448597	2.61546032734703448597
	153	1	6.97456087292542470379	0.00000000000000000000	3.48728043646271235190
	154	1	8.71820109115678043565	1.74364021823135617595	3.48728043646271235190
	155	1	8.71820109115678043565	0.00000000000000000000	5.23092065469406897193
	156	1	6.97456087292542470379	1.74364021823135617595	5.23092065469406897193
	157	1	7.84638098204110256972	0.87182010911567808797	4.35910054557839021783
	158	1	9.59002120027246007794	2.61546032734703448597	4.35910054557839021783
	159	1	9.59002120027246007794	0.87182010911567808797	6.10274076380974683786
	160	1	7.84638098204110256972	2.61546032734703448597	6.10274076380974683786
	161	1	6.97456087292542470379	0.00000000000000000000	6.97456087292542470379
	162	1	8.71820109115678043565	1.74364021823135617595	6.97456087292542470379
	163	1	8.71820109115678043565	0.00000000000000000000	8.71820109115678043565
	164	1	6.97456087292542470379	1.74364021823135617595	8.71820109115678043565
	165	1	7.84638098204110256972	0.87182010911567808797	7.84638098204110256972
	166	1	9.59002120027246007794	2.61546032734703448597	7.84638098204110256972
	167	1	9.59002120027246007794	0.87182010911567808797	9.59002120027246007794
	168	1	7.84638098204110256972	2.61546032734703448597	9.59002120027246007794
	169	1	6.97456087292542470379	3.48728043646271235190	0.00000000000000000000
	170	1	8.71820109115678043565	5.23092065469406897193	0.00000000000000000000
	171	1	8.71820109115678043565	3.48728043646271235190	1.74364021823135617595
	172	1	6.97456087292542470379	5.23092065469406897193	1.74364021823135617595
	173	1	7.84638098204110256972	4.35910054557839021783	0.87182010911567808797
	174	1	9.59002120027246007794	6.10274076380974683786	0.87182010911567808797
	175	1	9.59002120027246007794	4.35910054557839021783	2.61546032734703448597
	176	1	7.84638098204110256972	6.10274076380974683786	2.61546032734703448597
	177	1	6.97456087292542470379	3.48728043646271235190	3.48728043646271235190
	178	1	8.71820109115678043565	5.23092065469406897193	3.48728043646271235190
	179	1	8.71820109115678043565	3.48728043646271235190	5.23092065469406897193
	180	1	6.97456087292542470379	5.23092065469406897193	5.23092065469406897193
	181	1	7.84638098204110256972	4.35910054557839021783	4.35910054557839021783
	182	1	9.59002120027246007794	6.10274076380974683786	4.35910054557839021783
	183	1	9.59002120027246007794	4.35910054557839021783	6.10274076380974683786
	184	1	7.84638098204110256972	6.10274076380974683786	6.10274076380974683786
	185	1	6.97456087292542470379	3.48728043646271235190	6.97456087292542470379
	186	1	8.71820109115678043565	5.23092065469406897193	6.97456087292542470379
	187	1	8.71820109115678043565	3.48728043646271235190	8.71820109115678043565
	188	1	6.97456087292542470379	5.23092065469406897193	8.71820109115678043565
	189	1	7.84638098204110256972	4.35910054557839021783	7.84638098204110256972
	190	1	9.59002120027246007794	6.10274076380974683786	7.84638098204110256972
	191	1	9.59002120027246007794	4.35910054557839021783	9.59002120027246007794
	192	1	7.84638098204110256972	6.10274076380974683786	9.59002120027246007794
	193	1	6.97456087292542470379	6.97456087292542470379	0.00000000000000000000
	194	1	8.71820109115678043565	8.71820109115678043565	0.00000000000000000000
	195	1	8.71820109115678043565	6.97456087292542470379	1.74364021823135617595
	196	1	6.97456087292542470379	8.71820109115678043565	1.74364021823135617595
	197	1	7.84638098204110256972	7.84638098204110256972	0.87182010911567808797
	198	1	9.59002120027246007794	9.59002120027246007794	0.87182010911567808797
	199	1	9.59002120027246007794	7.84638098204110256972	2.61546032734703448597
	200	1	7.84638098204110256972	9.59002120027246007794	2.61546032734703448597
	201	1	6.97456087292542470379	6.97456087292542470379	3.48728043646271235190
	202	1	8.71820109115678043565	8.71820109115678043565	3.48728043646271235190
	203	1	8.71820109115678043565	6.97456087292542470379	5.23092065469406897193
	204	1	6.97456087292542470379	8.71820109115678043565	5.23092065469406897193
	205	1	7.84638098204110256972	7.84638098204110256972	4.35910054557839021783
	206	1	9.59002120027246007794	9.59002120027246007794	4.35910054557839021783
	207	1	9.59002120027246007794	7.84638098204110256972	6.10274076380974683786
	208	1	7.84638098204110256972	9.59002120027246007794	6.10274076380974683786
	209	1	6.97456087292542470379	6.97456087292542470379	6.97456087292542470379
	210	1	8.71820109115678043565	8.71820109115678043565	6.97456087292542470379
	211	1	8.71820109115678043565	6.97456087292542470379	8.71820109115678043565
	212	1	6.97456087292542470379	8.71820109115678043565	8.71820109115678043565
	213	1	7.84638098204110256972	7.84638098204110256972	7.84638098204110256972
	214	1	9.59002120027246007794	9.59002120027246007794	7.84638098204110256972
	215	1	9.59002120027246007794	7.84638098204110256972	9.59002120027246007794
	216	1	7.84638098204110256972	9.59002120027246007794	9.59002120027246007794
