 
 720 atoms 
 
 1 atom types
 0.00000000000000000000 5.11000043317335528315 xlo xhi
 0.00000000000000000000 8.85078037695522112926 ylo yhi
 0.00000000000000000000 207.75340470013591698262 zlo zhi
 0.00000000000000054195 0.00000000000001272123 0.00000000000001272123 xy xz yz
 
 Atoms 
 
	1	1	0.00000000000000000000	0.00000000000000000000	0.00000000000000000000
	2	1	1.27750010829333904283	2.21269509423880528232	0.00000000000000000000
	3	1	0.00000000000000021807	1.47513006282587033624	2.08614894111262172416
	4	1	1.27750010829333926488	3.68782515706467561856	2.08614894111262172416
	5	1	0.00000000000000043613	2.95026012565174067248	4.17229788222524344832
	6	1	1.27750010829333904283	0.73756503141293527914	4.17229788222524344832
	7	1	0.00000000000000038322	0.00000000000000038322	6.25844682333786561657
	8	1	1.27750010829333948692	2.21269509423880572641	6.25844682333786561657
	9	1	0.00000000000000060128	1.47513006282587055829	8.34459576445048689664
	10	1	1.27750010829333948692	3.68782515706467606265	8.34459576445048689664
	11	1	0.00000000000000081935	2.95026012565174067248	10.43074470556310728853
	12	1	1.27750010829333948692	0.73756503141293572323	10.43074470556310728853
	13	1	0.00000000000000076644	0.00000000000000076644	12.51689364667573123313
	14	1	1.27750010829333970896	2.21269509423880617049	12.51689364667573123313
	15	1	0.00000000000000098450	1.47513006282587100237	14.60304258778835340138
	16	1	1.27750010829333993101	3.68782515706467650674	14.60304258778835340138
	17	1	0.00000000000000120257	2.95026012565174111657	16.68919152890097379327
	18	1	1.27750010829333993101	0.73756503141293605630	16.68919152890097379327
	19	1	0.00000000000000114966	0.00000000000000114966	18.77534047001359596152
	20	1	1.27750010829334015305	2.21269509423880661458	18.77534047001359596152
	21	1	0.00000000000000136772	1.47513006282587144646	20.86148941112621457705
	22	1	1.27750010829334037510	3.68782515706467695082	20.86148941112621457705
	23	1	0.00000000000000158579	2.95026012565174156066	22.94763835223884029801
	24	1	1.27750010829334015305	0.73756503141293650039	22.94763835223884029801
	25	1	0.00000000000000153288	0.00000000000000153288	25.03378729335146246626
	26	1	1.27750010829334059714	2.21269509423880661458	25.03378729335146246626
	27	1	0.00000000000000175094	1.47513006282587166851	27.11993623446408463451
	28	1	1.27750010829334059714	3.68782515706467739491	27.11993623446408463451
	29	1	0.00000000000000196901	2.95026012565174200475	29.20608517557670680276
	30	1	1.27750010829334059714	0.73756503141293683345	29.20608517557670680276
	31	1	0.00000000000000191610	0.00000000000000191610	31.29223411668932541829
	32	1	1.27750010829334104123	2.21269509423880705867	31.29223411668932541829
	33	1	0.00000000000000213416	1.47513006282587211260	33.37838305780194758654
	34	1	1.27750010829334104123	3.68782515706467783900	33.37838305780194758654
	35	1	0.00000000000000235223	2.95026012565174244884	35.46453199891456620207
	36	1	1.27750010829334104123	0.73756503141293727754	35.46453199891456620207
	37	1	0.00000000000000229932	0.00000000000000229932	37.55068094002719192304
	38	1	1.27750010829334126328	2.21269509423880750276	37.55068094002719192304
	39	1	0.00000000000000251738	1.47513006282587255669	39.63682988113981053857
	40	1	1.27750010829334148532	3.68782515706467783900	39.63682988113981053857
	41	1	0.00000000000000273545	2.95026012565174289293	41.72297882225242915410
	42	1	1.27750010829334148532	0.73756503141293761061	41.72297882225242915410
	43	1	0.00000000000000268254	0.00000000000000268254	43.80912776336505487507
	44	1	1.27750010829334170737	2.21269509423880794685	43.80912776336505487507
	45	1	0.00000000000000290060	1.47513006282587300078	45.89527670447768059603
	46	1	1.27750010829334192941	3.68782515706467828309	45.89527670447768059603
	47	1	0.00000000000000311867	2.95026012565174333702	47.98142564559029921156
	48	1	1.27750010829334170737	0.73756503141293794368	47.98142564559029921156
	49	1	0.00000000000000306575	0.00000000000000306575	50.06757458670292493252
	50	1	1.27750010829334215146	2.21269509423880839094	50.06757458670292493252
	51	1	0.00000000000000328382	1.47513006282587322282	52.15372352781555065349
	52	1	1.27750010829334215146	3.68782515706467872718	52.15372352781555065349
	53	1	0.00000000000000350189	2.95026012565174333702	54.23987246892816926902
	54	1	1.27750010829334215146	0.73756503141293838777	54.23987246892816926902
	55	1	0.00000000000000344897	0.00000000000000344897	56.32602141004078788455
	56	1	1.27750010829334259554	2.21269509423880883503	56.32602141004078788455
	57	1	0.00000000000000366704	1.47513006282587366691	58.41217035115341360552
	58	1	1.27750010829334259554	3.68782515706467917127	58.41217035115341360552
	59	1	0.00000000000000388510	2.95026012565174378111	60.49831929226603222105
	60	1	1.27750010829334259554	0.73756503141293872083	60.49831929226603222105
	61	1	0.00000000000000383219	0.00000000000000383219	62.58446823337865083658
	62	1	1.27750010829334281759	2.21269509423880927912	62.58446823337865083658
	63	1	0.00000000000000405026	1.47513006282587411100	64.67061717449126945212
	64	1	1.27750010829334303963	3.68782515706467961536	64.67061717449126945212
	65	1	0.00000000000000426832	2.95026012565174422519	66.75676611560389517308
	66	1	1.27750010829334281759	0.73756503141293916492	66.75676611560389517308
	67	1	0.00000000000000421541	0.00000000000000421541	68.84291505671652089404
	68	1	1.27750010829334326168	2.21269509423880927912	68.84291505671652089404
	69	1	0.00000000000000443348	1.47513006282587455509	70.92906399782913240415
	70	1	1.27750010829334348372	3.68782515706468005945	70.92906399782913240415
	71	1	0.00000000000000465154	2.95026012565174466928	73.01521293894175812511
	72	1	1.27750010829334326168	0.73756503141293949799	73.01521293894175812511
	73	1	0.00000000000000459863	0.00000000000000459863	75.10136188005438384607
	74	1	1.27750010829334370577	2.21269509423880972321	75.10136188005438384607
	75	1	0.00000000000000481670	1.47513006282587477713	77.18751082116699535618
	76	1	1.27750010829334370577	3.68782515706468050354	77.18751082116699535618
	77	1	0.00000000000000503476	2.95026012565174511337	79.27365976227962107714
	78	1	1.27750010829334370577	0.73756503141293994208	79.27365976227962107714
	79	1	0.00000000000000498185	0.00000000000000498185	81.35980870339224679810
	80	1	1.27750010829334392781	2.21269509423881016730	81.35980870339224679810
	81	1	0.00000000000000519992	1.47513006282587522122	83.44595764450485830821
	82	1	1.27750010829334414986	3.68782515706468094763	83.44595764450485830821
	83	1	0.00000000000000541798	2.95026012565174555746	85.53210658561749824003
	84	1	1.27750010829334414986	0.73756503141294027515	85.53210658561749824003
	85	1	0.00000000000000536507	0.00000000000000536507	87.61825552673010975013
	86	1	1.27750010829334437190	2.21269509423881061139	87.61825552673010975013
	87	1	0.00000000000000558314	1.47513006282587566531	89.70440446784273547109
	88	1	1.27750010829334459395	3.68782515706468094763	89.70440446784273547109
	89	1	0.00000000000000580120	2.95026012565174600155	91.79055340895536119206
	90	1	1.27750010829334437190	0.73756503141294071924	91.79055340895536119206
	91	1	0.00000000000000574829	0.00000000000000574829	93.87670235006797270216
	92	1	1.27750010829334481599	2.21269509423881105548	93.87670235006797270216
	93	1	0.00000000000000596636	1.47513006282587588736	95.96285129118059842313
	94	1	1.27750010829334481599	3.68782515706468139172	95.96285129118059842313
	95	1	0.00000000000000618442	2.95026012565174644564	98.04900023229323835494
	96	1	1.27750010829334481599	0.73756503141294105230	98.04900023229323835494
	97	1	0.00000000000000613151	0.00000000000000613151	100.13514917340584986505
	98	1	1.27750010829334526008	2.21269509423881149957	100.13514917340584986505
	99	1	0.00000000000000634957	1.47513006282587633144	102.22129811451847558601
	100	1	1.27750010829334526008	3.68782515706468183581	102.22129811451847558601
	101	1	0.00000000000000656764	2.95026012565174644564	104.30744705563110130697
	102	1	1.27750010829334526008	0.73756503141294149639	104.30744705563110130697
	103	1	0.00000000000000651473	0.00000000000000651473	106.39359599674371281708
	104	1	1.27750010829334548212	2.21269509423881194365	106.39359599674371281708
	105	1	0.00000000000000673279	1.47513006282587677553	108.47974493785633853804
	106	1	1.27750010829334570417	3.68782515706468227989	108.47974493785633853804
	107	1	0.00000000000000695086	2.95026012565174688973	110.56589387896896425900
	108	1	1.27750010829334548212	0.73756503141294182946	110.56589387896896425900
	109	1	0.00000000000000689795	0.00000000000000689795	112.65204282008157576911
	110	1	1.27750010829334592621	2.21269509423881238774	112.65204282008157576911
	111	1	0.00000000000000711601	1.47513006282587721962	114.73819176119420149007
	112	1	1.27750010829334614826	3.68782515706468272398	114.73819176119420149007
	113	1	0.00000000000000733408	2.95026012565174733382	116.82434070230682721103
	114	1	1.27750010829334592621	0.73756503141294216253	116.82434070230682721103
	115	1	0.00000000000000728117	0.00000000000000728117	118.91048964341943872114
	116	1	1.27750010829334637030	2.21269509423881238774	118.91048964341943872114
	117	1	0.00000000000000749923	1.47513006282587744167	120.99663858453206444210
	118	1	1.27750010829334637030	3.68782515706468316807	120.99663858453206444210
	119	1	0.00000000000000771730	2.95026012565174777791	123.08278752564469016306
	120	1	1.27750010829334637030	0.73756503141294260661	123.08278752564469016306
	121	1	0.00000000000000766439	0.00000000000000766439	125.16893646675730167317
	122	1	1.27750010829334681439	2.21269509423881283183	125.16893646675730167317
	123	1	0.00000000000000788245	1.47513006282587788576	127.25508540786992739413
	124	1	1.27750010829334681439	3.68782515706468361216	127.25508540786992739413
	125	1	0.00000000000000810052	2.95026012565174822200	129.34123434898253890424
	126	1	1.27750010829334681439	0.73756503141294293968	129.34123434898253890424
	127	1	0.00000000000000804761	0.00000000000000804761	131.42738329009517883605
	128	1	1.27750010829334703644	2.21269509423881327592	131.42738329009517883605
	129	1	0.00000000000000826567	1.47513006282587832985	133.51353223120779034616
	130	1	1.27750010829334725848	3.68782515706468361216	133.51353223120779034616
	131	1	0.00000000000000848374	2.95026012565174866609	135.59968117232040185627
	132	1	1.27750010829334703644	0.73756503141294338377	135.59968117232040185627
	133	1	0.00000000000000843083	0.00000000000000843083	137.68583011343304178808
	134	1	1.27750010829334748053	2.21269509423881372001	137.68583011343304178808
	135	1	0.00000000000000864889	1.47513006282587877394	139.77197905454565329819
	136	1	1.27750010829334770257	3.68782515706468405625	139.77197905454565329819
	137	1	0.00000000000000886696	2.95026012565174911018	141.85812799565826480830
	138	1	1.27750010829334748053	0.73756503141294371684	141.85812799565826480830
	139	1	0.00000000000000881404	0.00000000000000881404	143.94427693677090474011
	140	1	1.27750010829334792462	2.21269509423881416410	143.94427693677090474011
	141	1	0.00000000000000903211	1.47513006282587899598	146.03042587788351625022
	142	1	1.27750010829334792462	3.68782515706468450034	146.03042587788351625022
	143	1	0.00000000000000925018	2.95026012565174911018	148.11657481899612776033
	144	1	1.27750010829334792462	0.73756503141294416093	148.11657481899612776033
	145	1	0.00000000000000919726	0.00000000000000919726	150.20272376010876769215
	146	1	1.27750010829334814666	2.21269509423881460819	150.20272376010876769215
	147	1	0.00000000000000941533	1.47513006282587944007	152.28887270122137920225
	148	1	1.27750010829334836870	3.68782515706468494443	152.28887270122137920225
	149	1	0.00000000000000963340	2.95026012565174955427	154.37502164233399071236
	150	1	1.27750010829334836870	0.73756503141294449399	154.37502164233399071236
	151	1	0.00000000000000958048	0.00000000000000958048	156.46117058344663064418
	152	1	1.27750010829334859075	2.21269509423881505228	156.46117058344663064418
	153	1	0.00000000000000979855	1.47513006282587988416	158.54731952455924215428
	154	1	1.27750010829334881279	3.68782515706468538852	158.54731952455924215428
	155	1	0.00000000000001001661	2.95026012565174999835	160.63346846567185366439
	156	1	1.27750010829334859075	0.73756503141294493808	160.63346846567185366439
	157	1	0.00000000000000996370	0.00000000000000996370	162.71961740678449359621
	158	1	1.27750010829334903484	2.21269509423881505228	162.71961740678449359621
	159	1	0.00000000000001018177	1.47513006282588010620	164.80576634789710510631
	160	1	1.27750010829334903484	3.68782515706468583261	164.80576634789710510631
	161	1	0.00000000000001039983	2.95026012565175044244	166.89191528900971661642
	162	1	1.27750010829334903484	0.73756503141294527115	166.89191528900971661642
	163	1	0.00000000000001034692	0.00000000000001034692	168.97806423012235654824
	164	1	1.27750010829334947893	2.21269509423881549637	168.97806423012235654824
	165	1	0.00000000000001056499	1.47513006282588055029	171.06421317123499648005
	166	1	1.27750010829334947893	3.68782515706468627670	171.06421317123499648005
	167	1	0.00000000000001078305	2.95026012565175088653	173.15036211234760799016
	168	1	1.27750010829334947893	0.73756503141294560422	173.15036211234760799016
	169	1	0.00000000000001073014	0.00000000000001073014	175.23651105346021950027
	170	1	1.27750010829334970097	2.21269509423881594046	175.23651105346021950027
	171	1	0.00000000000001094821	1.47513006282588099438	177.32265999457285943208
	172	1	1.27750010829334992302	3.68782515706468627670	177.32265999457285943208
	173	1	0.00000000000001116627	2.95026012565175133062	179.40880893568547094219
	174	1	1.27750010829334970097	0.73756503141294604831	179.40880893568547094219
	175	1	0.00000000000001111336	0.00000000000001111336	181.49495787679808245230
	176	1	1.27750010829335014506	2.21269509423881638455	181.49495787679808245230
	177	1	0.00000000000001133143	1.47513006282588143847	183.58110681791072238411
	178	1	1.27750010829335036711	3.68782515706468672079	183.58110681791072238411
	179	1	0.00000000000001154949	2.95026012565175177471	185.66725575902333389422
	180	1	1.27750010829335014506	0.73756503141294638137	185.66725575902333389422
	181	1	0.00000000000000027098	4.42539018847761056463	0.00000000000000000000
	182	1	1.27750010829333926488	6.63808528271641584695	0.00000000000000000000
	183	1	0.00000000000000048904	5.90052025130348045678	2.08614894111262172416
	184	1	1.27750010829333948692	8.11321534554228662728	2.08614894111262172416
	185	1	0.00000000000000070711	7.37565031412935034894	4.17229788222524344832
	186	1	1.27750010829333926488	5.16295521989054595480	4.17229788222524344832
	187	1	0.00000000000000065420	4.42539018847761056463	6.25844682333786561657
	188	1	1.27750010829333970896	6.63808528271641584695	6.25844682333786561657
	189	1	0.00000000000000087226	5.90052025130348134496	8.34459576445048689664
	190	1	1.27750010829333970896	8.11321534554228662728	8.34459576445048689664
	191	1	0.00000000000000109033	7.37565031412935123711	10.43074470556310728853
	192	1	1.27750010829333970896	5.16295521989054684298	10.43074470556310728853
	193	1	0.00000000000000103742	4.42539018847761145281	12.51689364667573123313
	194	1	1.27750010829333993101	6.63808528271641673513	12.51689364667573123313
	195	1	0.00000000000000125548	5.90052025130348134496	14.60304258778835340138
	196	1	1.27750010829334015305	8.11321534554228840364	14.60304258778835340138
	197	1	0.00000000000000147355	7.37565031412935123711	16.68919152890097379327
	198	1	1.27750010829334015305	5.16295521989054684298	16.68919152890097379327
	199	1	0.00000000000000142064	4.42539018847761145281	18.77534047001359596152
	200	1	1.27750010829334037510	6.63808528271641673513	18.77534047001359596152
	201	1	0.00000000000000163870	5.90052025130348134496	20.86148941112621457705
	202	1	1.27750010829334059714	8.11321534554228840364	20.86148941112621457705
	203	1	0.00000000000000185677	7.37565031412935212529	22.94763835223884029801
	204	1	1.27750010829334037510	5.16295521989054773115	22.94763835223884029801
	205	1	0.00000000000000180385	4.42539018847761234099	25.03378729335146246626
	206	1	1.27750010829334081919	6.63808528271641762331	25.03378729335146246626
	207	1	0.00000000000000202192	5.90052025130348223314	27.11993623446408463451
	208	1	1.27750010829334081919	8.11321534554228840364	27.11993623446408463451
	209	1	0.00000000000000223999	7.37565031412935212529	29.20608517557670680276
	210	1	1.27750010829334081919	5.16295521989054773115	29.20608517557670680276
	211	1	0.00000000000000218707	4.42539018847761234099	31.29223411668932541829
	212	1	1.27750010829334126328	6.63808528271641762331	31.29223411668932541829
	213	1	0.00000000000000240514	5.90052025130348223314	33.37838305780194758654
	214	1	1.27750010829334126328	8.11321534554228840364	33.37838305780194758654
	215	1	0.00000000000000262320	7.37565031412935212529	35.46453199891456620207
	216	1	1.27750010829334126328	5.16295521989054773115	35.46453199891456620207
	217	1	0.00000000000000257029	4.42539018847761322917	37.55068094002719192304
	218	1	1.27750010829334148532	6.63808528271641851148	37.55068094002719192304
	219	1	0.00000000000000278836	5.90052025130348312132	39.63682988113981053857
	220	1	1.27750010829334170737	8.11321534554228840364	39.63682988113981053857
	221	1	0.00000000000000300642	7.37565031412935301347	41.72297882225242915410
	222	1	1.27750010829334170737	5.16295521989054861933	41.72297882225242915410
	223	1	0.00000000000000295351	4.42539018847761322917	43.80912776336505487507
	224	1	1.27750010829334192941	6.63808528271641851148	43.80912776336505487507
	225	1	0.00000000000000317158	5.90052025130348312132	45.89527670447768059603
	226	1	1.27750010829334215146	8.11321534554229017999	45.89527670447768059603
	227	1	0.00000000000000338964	7.37565031412935301347	47.98142564559029921156
	228	1	1.27750010829334192941	5.16295521989054861933	47.98142564559029921156
	229	1	0.00000000000000333673	4.42539018847761322917	50.06757458670292493252
	230	1	1.27750010829334237350	6.63808528271641851148	50.06757458670292493252
	231	1	0.00000000000000355480	5.90052025130348400950	52.15372352781555065349
	232	1	1.27750010829334237350	8.11321534554229017999	52.15372352781555065349
	233	1	0.00000000000000377286	7.37565031412935390165	54.23987246892816926902
	234	1	1.27750010829334237350	5.16295521989054950751	54.23987246892816926902
	235	1	0.00000000000000371995	4.42539018847761411735	56.32602141004078788455
	236	1	1.27750010829334281759	6.63808528271641939966	56.32602141004078788455
	237	1	0.00000000000000393802	5.90052025130348400950	58.41217035115341360552
	238	1	1.27750010829334281759	8.11321534554229017999	58.41217035115341360552
	239	1	0.00000000000000415608	7.37565031412935390165	60.49831929226603222105
	240	1	1.27750010829334281759	5.16295521989054950751	60.49831929226603222105
	241	1	0.00000000000000410317	4.42539018847761411735	62.58446823337865083658
	242	1	1.27750010829334303963	6.63808528271641939966	62.58446823337865083658
	243	1	0.00000000000000432124	5.90052025130348400950	64.67061717449126945212
	244	1	1.27750010829334326168	8.11321534554229017999	64.67061717449126945212
	245	1	0.00000000000000453930	7.37565031412935478983	66.75676611560389517308
	246	1	1.27750010829334303963	5.16295521989055039569	66.75676611560389517308
	247	1	0.00000000000000448639	4.42539018847761500552	68.84291505671652089404
	248	1	1.27750010829334348372	6.63808528271642028784	68.84291505671652089404
	249	1	0.00000000000000470446	5.90052025130348489768	70.92906399782913240415
	250	1	1.27750010829334370577	8.11321534554229017999	70.92906399782913240415
	251	1	0.00000000000000492252	7.37565031412935478983	73.01521293894175812511
	252	1	1.27750010829334348372	5.16295521989055039569	73.01521293894175812511
	253	1	0.00000000000000486961	4.42539018847761500552	75.10136188005438384607
	254	1	1.27750010829334392781	6.63808528271642028784	75.10136188005438384607
	255	1	0.00000000000000508767	5.90052025130348489768	77.18751082116699535618
	256	1	1.27750010829334392781	8.11321534554229195635	77.18751082116699535618
	257	1	0.00000000000000530574	7.37565031412935478983	79.27365976227962107714
	258	1	1.27750010829334392781	5.16295521989055039569	79.27365976227962107714
	259	1	0.00000000000000525283	4.42539018847761589370	81.35980870339224679810
	260	1	1.27750010829334414986	6.63808528271642117602	81.35980870339224679810
	261	1	0.00000000000000547089	5.90052025130348578585	83.44595764450485830821
	262	1	1.27750010829334437190	8.11321534554229195635	83.44595764450485830821
	263	1	0.00000000000000568896	7.37565031412935567801	85.53210658561749824003
	264	1	1.27750010829334437190	5.16295521989055128387	85.53210658561749824003
	265	1	0.00000000000000563605	4.42539018847761589370	87.61825552673010975013
	266	1	1.27750010829334459395	6.63808528271642117602	87.61825552673010975013
	267	1	0.00000000000000585411	5.90052025130348578585	89.70440446784273547109
	268	1	1.27750010829334481599	8.11321534554229195635	89.70440446784273547109
	269	1	0.00000000000000607218	7.37565031412935567801	91.79055340895536119206
	270	1	1.27750010829334459395	5.16295521989055128387	91.79055340895536119206
	271	1	0.00000000000000601927	4.42539018847761589370	93.87670235006797270216
	272	1	1.27750010829334503804	6.63808528271642117602	93.87670235006797270216
	273	1	0.00000000000000623733	5.90052025130348667403	95.96285129118059842313
	274	1	1.27750010829334503804	8.11321534554229195635	95.96285129118059842313
	275	1	0.00000000000000645540	7.37565031412935656618	98.04900023229323835494
	276	1	1.27750010829334503804	5.16295521989055217205	98.04900023229323835494
	277	1	0.00000000000000640249	4.42539018847761678188	100.13514917340584986505
	278	1	1.27750010829334548212	6.63808528271642206420	100.13514917340584986505
	279	1	0.00000000000000662055	5.90052025130348667403	102.22129811451847558601
	280	1	1.27750010829334548212	8.11321534554229373271	102.22129811451847558601
	281	1	0.00000000000000683862	7.37565031412935656618	104.30744705563110130697
	282	1	1.27750010829334548212	5.16295521989055217205	104.30744705563110130697
	283	1	0.00000000000000678571	4.42539018847761678188	106.39359599674371281708
	284	1	1.27750010829334570417	6.63808528271642206420	106.39359599674371281708
	285	1	0.00000000000000700377	5.90052025130348667403	108.47974493785633853804
	286	1	1.27750010829334592621	8.11321534554229373271	108.47974493785633853804
	287	1	0.00000000000000722184	7.37565031412935745436	110.56589387896896425900
	288	1	1.27750010829334570417	5.16295521989055306022	110.56589387896896425900
	289	1	0.00000000000000716893	4.42539018847761767006	112.65204282008157576911
	290	1	1.27750010829334614826	6.63808528271642295238	112.65204282008157576911
	291	1	0.00000000000000738699	5.90052025130348756221	114.73819176119420149007
	292	1	1.27750010829334637030	8.11321534554229373271	114.73819176119420149007
	293	1	0.00000000000000760506	7.37565031412935745436	116.82434070230682721103
	294	1	1.27750010829334614826	5.16295521989055306022	116.82434070230682721103
	295	1	0.00000000000000755214	4.42539018847761767006	118.91048964341943872114
	296	1	1.27750010829334659235	6.63808528271642295238	118.91048964341943872114
	297	1	0.00000000000000777021	5.90052025130348756221	120.99663858453206444210
	298	1	1.27750010829334659235	8.11321534554229373271	120.99663858453206444210
	299	1	0.00000000000000798828	7.37565031412935745436	123.08278752564469016306
	300	1	1.27750010829334659235	5.16295521989055306022	123.08278752564469016306
	301	1	0.00000000000000793536	4.42539018847761855824	125.16893646675730167317
	302	1	1.27750010829334703644	6.63808528271642384055	125.16893646675730167317
	303	1	0.00000000000000815343	5.90052025130348845039	127.25508540786992739413
	304	1	1.27750010829334703644	8.11321534554229373271	127.25508540786992739413
	305	1	0.00000000000000837149	7.37565031412935834254	129.34123434898253890424
	306	1	1.27750010829334703644	5.16295521989055394840	129.34123434898253890424
	307	1	0.00000000000000831858	4.42539018847761855824	131.42738329009517883605
	308	1	1.27750010829334725848	6.63808528271642384055	131.42738329009517883605
	309	1	0.00000000000000853665	5.90052025130348845039	133.51353223120779034616
	310	1	1.27750010829334748053	8.11321534554229550906	133.51353223120779034616
	311	1	0.00000000000000875471	7.37565031412935834254	135.59968117232040185627
	312	1	1.27750010829334725848	5.16295521989055394840	135.59968117232040185627
	313	1	0.00000000000000870180	4.42539018847761855824	137.68583011343304178808
	314	1	1.27750010829334770257	6.63808528271642384055	137.68583011343304178808
	315	1	0.00000000000000891987	5.90052025130348933857	139.77197905454565329819
	316	1	1.27750010829334792462	8.11321534554229550906	139.77197905454565329819
	317	1	0.00000000000000913793	7.37565031412935923072	141.85812799565826480830
	318	1	1.27750010829334770257	5.16295521989055483658	141.85812799565826480830
	319	1	0.00000000000000908502	4.42539018847761944642	143.94427693677090474011
	320	1	1.27750010829334814666	6.63808528271642472873	143.94427693677090474011
	321	1	0.00000000000000930309	5.90052025130348933857	146.03042587788351625022
	322	1	1.27750010829334814666	8.11321534554229550906	146.03042587788351625022
	323	1	0.00000000000000952115	7.37565031412935923072	148.11657481899612776033
	324	1	1.27750010829334814666	5.16295521989055483658	148.11657481899612776033
	325	1	0.00000000000000946824	4.42539018847761944642	150.20272376010876769215
	326	1	1.27750010829334836870	6.63808528271642472873	150.20272376010876769215
	327	1	0.00000000000000968631	5.90052025130348933857	152.28887270122137920225
	328	1	1.27750010829334859075	8.11321534554229550906	152.28887270122137920225
	329	1	0.00000000000000990437	7.37565031412936011890	154.37502164233399071236
	330	1	1.27750010829334859075	5.16295521989055572476	154.37502164233399071236
	331	1	0.00000000000000985146	4.42539018847762033460	156.46117058344663064418
	332	1	1.27750010829334881279	6.63808528271642561691	156.46117058344663064418
	333	1	0.00000000000001006953	5.90052025130349022675	158.54731952455924215428
	334	1	1.27750010829334903484	8.11321534554229550906	158.54731952455924215428
	335	1	0.00000000000001028759	7.37565031412936011890	160.63346846567185366439
	336	1	1.27750010829334881279	5.16295521989055572476	160.63346846567185366439
	337	1	0.00000000000001023468	4.42539018847762033460	162.71961740678449359621
	338	1	1.27750010829334925688	6.63808528271642561691	162.71961740678449359621
	339	1	0.00000000000001045275	5.90052025130349022675	164.80576634789710510631
	340	1	1.27750010829334925688	8.11321534554229728542	164.80576634789710510631
	341	1	0.00000000000001067081	7.37565031412936100708	166.89191528900971661642
	342	1	1.27750010829334925688	5.16295521989055661294	166.89191528900971661642
	343	1	0.00000000000001061790	4.42539018847762122277	168.97806423012235654824
	344	1	1.27750010829334970097	6.63808528271642650509	168.97806423012235654824
	345	1	0.00000000000001083596	5.90052025130349111492	171.06421317123499648005
	346	1	1.27750010829334970097	8.11321534554229728542	171.06421317123499648005
	347	1	0.00000000000001105403	7.37565031412936100708	173.15036211234760799016
	348	1	1.27750010829334970097	5.16295521989055661294	173.15036211234760799016
	349	1	0.00000000000001100112	4.42539018847762122277	175.23651105346021950027
	350	1	1.27750010829334992302	6.63808528271642650509	175.23651105346021950027
	351	1	0.00000000000001121918	5.90052025130349111492	177.32265999457285943208
	352	1	1.27750010829335014506	8.11321534554229728542	177.32265999457285943208
	353	1	0.00000000000001143725	7.37565031412936100708	179.40880893568547094219
	354	1	1.27750010829334992302	5.16295521989055661294	179.40880893568547094219
	355	1	0.00000000000001138434	4.42539018847762211095	181.49495787679808245230
	356	1	1.27750010829335036711	6.63808528271642739327	181.49495787679808245230
	357	1	0.00000000000001160240	5.90052025130349200310	183.58110681791072238411
	358	1	1.27750010829335058915	8.11321534554229728542	183.58110681791072238411
	359	1	0.00000000000001182047	7.37565031412936189525	185.66725575902333389422
	360	1	1.27750010829335036711	5.16295521989055750112	185.66725575902333389422
	361	1	2.55500021658667764157	0.00000000000000000000	0.00000000000000000000
	362	1	3.83250032488001668440	2.21269509423880528232	0.00000000000000000000
	363	1	2.55500021658667764157	1.47513006282587033624	2.08614894111262172416
	364	1	3.83250032488001712849	3.68782515706467561856	2.08614894111262172416
	365	1	2.55500021658667808566	2.95026012565174067248	4.17229788222524344832
	366	1	3.83250032488001712849	0.73756503141293527914	4.17229788222524344832
	367	1	2.55500021658667808566	0.00000000000000038322	6.25844682333786561657
	368	1	3.83250032488001712849	2.21269509423880572641	6.25844682333786561657
	369	1	2.55500021658667808566	1.47513006282587055829	8.34459576445048689664
	370	1	3.83250032488001757258	3.68782515706467606265	8.34459576445048689664
	371	1	2.55500021658667808566	2.95026012565174067248	10.43074470556310728853
	372	1	3.83250032488001712849	0.73756503141293572323	10.43074470556310728853
	373	1	2.55500021658667852975	0.00000000000000076644	12.51689364667573123313
	374	1	3.83250032488001757258	2.21269509423880617049	12.51689364667573123313
	375	1	2.55500021658667852975	1.47513006282587100237	14.60304258778835340138
	376	1	3.83250032488001801667	3.68782515706467650674	14.60304258778835340138
	377	1	2.55500021658667852975	2.95026012565174111657	16.68919152890097379327
	378	1	3.83250032488001757258	0.73756503141293605630	16.68919152890097379327
	379	1	2.55500021658667897384	0.00000000000000114966	18.77534047001359596152
	380	1	3.83250032488001801667	2.21269509423880661458	18.77534047001359596152
	381	1	2.55500021658667897384	1.47513006282587144646	20.86148941112621457705
	382	1	3.83250032488001846076	3.68782515706467695082	20.86148941112621457705
	383	1	2.55500021658667897384	2.95026012565174156066	22.94763835223884029801
	384	1	3.83250032488001801667	0.73756503141293650039	22.94763835223884029801
	385	1	2.55500021658667897384	0.00000000000000153288	25.03378729335146246626