ITEM: TIMESTEP
0
ITEM: NUMBER OF ATOMS
720
ITEM: BOX BOUNDS xy xz yz pp pp ss
0 5.11 5.4195e-16
0 8.85078 1.27212e-14
-0.0207753 185.688 1.27212e-14
ITEM: ATOMS id type x y z 
1 1 1.42313e-18 1.42313e-18 0 
2 1 1.2775 2.2127 0 
3 1 2.34651e-16 1.47513 2.08615 
4 1 1.2775 3.68783 2.08615 
5 1 4.6788e-16 2.95026 4.1723 
6 1 1.2775 0.737565 4.1723 
7 1 4.30133e-16 4.30133e-16 6.25845 
8 1 1.2775 2.2127 6.25845 
9 1 6.63361e-16 1.47513 8.3446 
10 1 1.2775 3.68783 8.3446 
11 1 8.96589e-16 2.95026 10.4307 
12 1 1.2775 0.737565 10.4307 
13 1 8.58842e-16 8.58842e-16 12.5169 
14 1 1.2775 2.2127 12.5169 
15 1 1.09207e-15 1.47513 14.603 
16 1 1.2775 3.68783 14.603 
17 1 1.3253e-15 2.95026 16.6892 
18 1 1.2775 0.737565 16.6892 
19 1 1.28755e-15 1.28755e-15 18.7753 
20 1 1.2775 2.2127 18.7753 
21 1 1.52078e-15 1.47513 20.8615 
22 1 1.2775 3.68783 20.8615 
23 1 1.75401e-15 2.95026 22.9476 
24 1 1.2775 0.737565 22.9476 
25 1 1.71626e-15 1.71626e-15 25.0338 
26 1 1.2775 2.2127 25.0338 
27 1 1.94949e-15 1.47513 27.1199 
28 1 1.2775 3.68783 27.1199 
29 1 2.18272e-15 2.95026 29.2061 
30 1 1.2775 0.737565 29.2061 
31 1 2.14497e-15 2.14497e-15 31.2922 
32 1 1.2775 2.2127 31.2922 
33 1 2.3782e-15 1.47513 33.3784 
34 1 1.2775 3.68783 33.3784 
35 1 2.61143e-15 2.95026 35.4645 
36 1 1.2775 0.737565 35.4645 
37 1 2.57368e-15 2.57368e-15 37.5507 
38 1 1.2775 2.2127 37.5507 
39 1 5.11 1.47513 39.6368 
40 1 1.2775 3.68783 39.6368 
41 1 5.11 2.95026 41.723 
42 1 1.2775 0.737565 41.723 
43 1 5.11 3.00239e-15 43.8091 
44 1 1.2775 2.2127 43.8091 
45 1 5.11 1.47513 45.8953 
46 1 1.2775 3.68783 45.8953 
47 1 5.11 2.95026 47.9814 
48 1 1.2775 0.737565 47.9814 
49 1 5.11 3.4311e-15 50.0676 
50 1 1.2775 2.2127 50.0676 
51 1 5.11 1.47513 52.1537 
52 1 1.2775 3.68783 52.1537 
53 1 5.11 2.95026 54.2399 
54 1 1.2775 0.737565 54.2399 
55 1 5.11 3.85981e-15 56.326 
56 1 1.2775 2.2127 56.326 
57 1 5.11 1.47513 58.4122 
58 1 1.2775 3.68783 58.4122 
59 1 5.11 2.95026 60.4983 
60 1 1.2775 0.737565 60.4983 
61 1 5.11 4.28852e-15 62.5845 
62 1 1.2775 2.2127 62.5845 
63 1 5.11 1.47513 64.6706 
64 1 1.2775 3.68783 64.6706 
65 1 5.11 2.95026 66.7568 
66 1 1.2775 0.737565 66.7568 
67 1 5.25918e-15 8.85078 68.8429 
68 1 1.2775 2.2127 68.8429 
69 1 5.11 1.47513 70.9291 
70 1 1.2775 3.68783 70.9291 
71 1 5.11 2.95026 73.0152 
72 1 1.2775 0.737565 73.0152 
73 1 5.68789e-15 8.85078 75.1014 
74 1 1.2775 2.2127 75.1014 
75 1 5.11 1.47513 77.1875 
76 1 1.2775 3.68783 77.1875 
77 1 5.11 2.95026 79.2737 
78 1 1.2775 0.737565 79.2737 
79 1 6.1166e-15 8.85078 81.3598 
80 1 1.2775 2.2127 81.3598 
81 1 5.11 1.47513 83.446 
82 1 1.2775 3.68783 83.446 
83 1 6.0411e-15 2.95026 85.5321 
84 1 1.2775 0.737565 85.5321 
85 1 5.11 8.85078 87.6183 
86 1 1.2775 2.2127 87.6183 
87 1 5.11 1.47513 89.7044 
88 1 1.2775 3.68783 89.7044 
89 1 5.11 2.95026 91.7906 
90 1 1.2775 0.737565 91.7906 
91 1 5.11 8.85078 93.8767 
92 1 1.2775 2.2127 93.8767 
93 1 5.11 1.47513 95.9629 
94 1 1.2775 3.68783 95.9629 
95 1 5.11 2.95026 98.049 
96 1 1.2775 0.737565 98.049 
97 1 7.40273e-15 8.85078 100.135 
98 1 1.2775 2.2127 100.135 
99 1 5.11 1.47513 102.221 
100 1 1.2775 3.68783 102.221 
101 1 5.11 2.95026 104.307 
102 1 1.2775 0.737565 104.307 
103 1 5.11 8.85078 106.394 
104 1 1.2775 2.2127 106.394 
105 1 5.11 1.47513 108.48 
106 1 1.2775 3.68783 108.48 
107 1 5.11 2.95026 110.566 
108 1 1.2775 0.737565 110.566 
109 1 8.26015e-15 8.85078 112.652 
110 1 1.2775 2.2127 112.652 
111 1 5.11 1.47513 114.738 
112 1 1.2775 3.68783 114.738 
113 1 5.11 2.95026 116.824 
114 1 1.2775 0.737565 116.824 
115 1 8.1469e-15 8.1469e-15 118.91 
116 1 1.2775 2.2127 118.91 
117 1 5.11 1.47513 120.997 
118 1 1.2775 3.68783 120.997 
119 1 5.11 2.95026 123.083 
120 1 1.2775 0.737565 123.083 
121 1 9.11756e-15 8.85078 125.169 
122 1 1.2775 2.2127 125.169 
123 1 5.11 1.47513 127.255 
124 1 1.2775 3.68783 127.255 
125 1 5.11 2.95026 129.341 
126 1 1.2775 0.737565 129.341 
127 1 9.54627e-15 8.85078 131.427 
128 1 1.2775 2.2127 131.427 
129 1 5.11 1.47513 133.514 
130 1 1.2775 3.68783 133.514 
131 1 5.11 2.95026 135.6 
132 1 1.2775 0.737565 135.6 
133 1 1.11096e-14 8.85078 137.686 
134 1 1.2775 2.2127 137.686 
135 1 5.11 1.47513 139.772 
136 1 1.2775 3.68783 139.772 
137 1 5.11 2.95026 141.858 
138 1 1.2775 0.737565 141.858 
139 1 9.86174e-15 9.86174e-15 143.944 
140 1 1.2775 2.2127 143.944 
141 1 5.11 1.47513 146.03 
142 1 1.2775 3.68783 146.03 
143 1 5.11 2.95026 148.117 
144 1 1.2775 0.737565 148.117 
145 1 1.02905e-14 1.02905e-14 150.203 
146 1 1.2775 2.2127 150.203 
147 1 1.05237e-14 1.47513 152.289 
148 1 1.2775 3.68783 152.289 
149 1 5.11 2.95026 154.375 
150 1 1.2775 0.737565 154.375 
151 1 5.11 8.85078 156.461 
152 1 1.2775 2.2127 156.461 
153 1 5.11 1.47513 158.547 
154 1 1.2775 3.68783 158.547 
155 1 5.11 2.95026 160.633 
156 1 1.2775 0.737565 160.633 
157 1 1.16898e-14 8.85078 162.72 
158 1 1.2775 2.2127 162.72 
159 1 5.11 1.47513 164.806 
160 1 1.2775 3.68783 164.806 
161 1 5.11 2.95026 166.892 
162 1 1.2775 0.737565 166.892 
163 1 1.21185e-14 8.85078 168.978 
164 1 1.2775 2.2127 168.978 
165 1 5.11 1.47513 171.064 
166 1 1.2775 3.68783 171.064 
167 1 5.11 2.95026 173.15 
168 1 1.2775 0.737565 173.15 
169 1 1.25472e-14 8.85078 175.237 
170 1 1.2775 2.2127 175.237 
171 1 5.11 1.47513 177.323 
172 1 1.2775 3.68783 177.323 
173 1 5.11 2.95026 179.409 
174 1 1.2775 0.737565 179.409 
175 1 1.2976e-14 8.85078 181.495 
176 1 1.2775 2.2127 181.495 
177 1 5.11 1.47513 183.581 
178 1 1.2775 3.68783 183.581 
179 1 5.11 2.95026 185.667 
180 1 1.2775 0.737565 185.667 
181 1 2.72398e-16 4.42539 0 
182 1 1.2775 6.63809 0 
183 1 5.05626e-16 5.90052 2.08615 
184 1 1.2775 8.11322 2.08615 
185 1 7.38855e-16 7.37565 4.1723 
186 1 1.2775 5.16296 4.1723 
187 1 7.01108e-16 4.42539 6.25845 
188 1 1.2775 6.63809 6.25845 
189 1 9.34336e-16 5.90052 8.3446 
190 1 1.2775 8.11322 8.3446 
191 1 1.16756e-15 7.37565 10.4307 
192 1 1.2775 5.16296 10.4307 
193 1 1.12982e-15 4.42539 12.5169 
194 1 1.2775 6.63809 12.5169 
195 1 1.36305e-15 5.90052 14.603 
196 1 1.2775 8.11322 14.603 
197 1 1.59627e-15 7.37565 16.6892 
198 1 1.2775 5.16296 16.6892 
199 1 1.55853e-15 4.42539 18.7753 
200 1 1.2775 6.63809 18.7753 
201 1 1.79176e-15 5.90052 20.8615 
202 1 1.2775 8.11322 20.8615 
203 1 2.02498e-15 7.37565 22.9476 
204 1 1.2775 5.16296 22.9476 
205 1 1.98724e-15 4.42539 25.0338 
206 1 1.2775 6.63809 25.0338 
207 1 2.22046e-15 5.90052 27.1199 
208 1 1.2775 8.11322 27.1199 
209 1 2.45369e-15 7.37565 29.2061 
210 1 1.2775 5.16296 29.2061 
211 1 2.41595e-15 4.42539 31.2922 
212 1 1.2775 6.63809 31.2922 
213 1 2.64917e-15 5.90052 33.3784 
214 1 1.2775 8.11322 33.3784 
215 1 2.8824e-15 7.37565 35.4645 
216 1 1.2775 5.16296 35.4645 
217 1 2.84466e-15 4.42539 37.5507 
218 1 1.2775 6.63809 37.5507 
219 1 5.11 5.90052 39.6368 
220 1 1.2775 8.11322 39.6368 
221 1 5.11 7.37565 41.723 
222 1 1.2775 5.16296 41.723 
223 1 5.11 4.42539 43.8091 
224 1 1.2775 6.63809 43.8091 
225 1 5.11 5.90052 45.8953 
226 1 1.2775 8.11322 45.8953 
227 1 3.73982e-15 7.37565 47.9814 
228 1 1.2775 5.16296 47.9814 
229 1 5.11 4.42539 50.0676 
230 1 1.2775 6.63809 50.0676 
231 1 5.11 5.90052 52.1537 
232 1 1.2775 8.11322 52.1537 
233 1 5.11 7.37565 54.2399 
234 1 1.2775 5.16296 54.2399 
235 1 5.11 4.42539 56.326 
236 1 1.2775 6.63809 56.326 
237 1 5.11 5.90052 58.4122 
238 1 1.2775 8.11322 58.4122 
239 1 4.59724e-15 7.37565 60.4983 
240 1 1.2775 5.16296 60.4983 
241 1 5.11 4.42539 62.5845 
242 1 1.2775 6.63809 62.5845 
243 1 5.11 5.90052 64.6706 
244 1 1.2775 8.11322 64.6706 
245 1 5.02595e-15 7.37565 66.7568 
246 1 1.2775 5.16296 66.7568 
247 1 5.11 4.42539 68.8429 
248 1 1.2775 6.63809 68.8429 
249 1 5.11 5.90052 70.9291 
250 1 1.2775 8.11322 70.9291 
251 1 6.58931e-15 7.37565 73.0152 
252 1 1.2775 5.16296 73.0152 
253 1 5.11 4.42539 75.1014 
254 1 1.2775 6.63809 75.1014 
255 1 5.11 5.90052 77.1875 
256 1 1.2775 8.11322 77.1875 
257 1 5.88337e-15 7.37565 79.2737 
258 1 1.2775 5.16296 79.2737 
259 1 5.11 4.42539 81.3598 
260 1 1.2775 6.63809 81.3598 
261 1 5.11 5.90052 83.446 
262 1 1.2775 8.11322 83.446 
263 1 6.31208e-15 7.37565 85.5321 
264 1 1.2775 5.16296 85.5321 
265 1 5.11 4.42539 87.6183 
266 1 1.2775 6.63809 87.6183 
267 1 5.11 5.90052 89.7044 
268 1 1.2775 8.11322 89.7044 
269 1 5.11 7.37565 91.7906 
270 1 1.2775 5.16296 91.7906 
271 1 5.11 4.42539 93.8767 
272 1 1.2775 6.63809 93.8767 
273 1 5.11 5.90052 95.9629 
274 1 1.2775 8.11322 95.9629 
275 1 7.1695e-15 7.37565 98.049 
276 1 1.2775 5.16296 98.049 
277 1 5.11 4.42539 100.135 
278 1 1.2775 6.63809 100.135 
279 1 5.11 5.90052 102.221 
280 1 1.2775 8.11322 102.221 
281 1 5.11 7.37565 104.307 
282 1 1.2775 5.16296 104.307 
283 1 5.11 4.42539 106.394 
284 1 1.2775 6.63809 106.394 
285 1 5.11 5.90052 108.48 
286 1 1.2775 8.11322 108.48 
287 1 8.02692e-15 7.37565 110.566 
288 1 1.2775 5.16296 110.566 
289 1 5.11 4.42539 112.652 
290 1 1.2775 6.63809 112.652 
291 1 5.11 5.90052 114.738 
292 1 1.2775 8.11322 114.738 
293 1 8.45563e-15 7.37565 116.824 
294 1 1.2775 5.16296 116.824 
295 1 5.11 4.42539 118.91 
296 1 1.2775 6.63809 118.91 
297 1 5.11 5.90052 120.997 
298 1 1.2775 8.11322 120.997 
299 1 5.11 7.37565 123.083 
300 1 1.2775 5.16296 123.083 
301 1 5.11 4.42539 125.169 
302 1 1.2775 6.63809 125.169 
303 1 5.11 5.90052 127.255 
304 1 1.2775 8.11322 127.255 
305 1 9.31305e-15 7.37565 129.341 
306 1 1.2775 5.16296 129.341 
307 1 5.11 4.42539 131.427 
308 1 1.2775 6.63809 131.427 
309 1 5.11 5.90052 133.514 
310 1 1.2775 8.11322 133.514 
311 1 9.74176e-15 7.37565 135.6 
312 1 1.2775 5.16296 135.6 
313 1 5.11 4.42539 137.686 
314 1 1.2775 6.63809 137.686 
315 1 5.11 5.90052 139.772 
316 1 1.2775 8.11322 139.772 
317 1 1.01705e-14 7.37565 141.858 
318 1 1.2775 5.16296 141.858 
319 1 5.11 4.42539 143.944 
320 1 1.2775 6.63809 143.944 
321 1 5.11 5.90052 146.03 
322 1 1.2775 8.11322 146.03 
323 1 1.05992e-14 7.37565 148.117 
324 1 1.2775 5.16296 148.117 
325 1 1.05614e-14 4.42539 150.203 
326 1 1.2775 6.63809 150.203 
327 1 1.07947e-14 5.90052 152.289 
328 1 1.2775 8.11322 152.289 
329 1 5.11 7.37565 154.375 
330 1 1.2775 5.16296 154.375 
331 1 5.11 4.42539 156.461 
332 1 1.2775 6.63809 156.461 
333 1 5.11 5.90052 158.547 
334 1 1.2775 8.11322 158.547 
335 1 5.11 7.37565 160.633 
336 1 1.2775 5.16296 160.633 
337 1 5.11 4.42539 162.72 
338 1 1.2775 6.63809 162.72 
339 1 5.11 5.90052 164.806 
340 1 1.2775 8.11322 164.806 
341 1 1.18853e-14 7.37565 166.892 
342 1 1.2775 5.16296 166.892 
343 1 5.11 4.42539 168.978 
344 1 1.2775 6.63809 168.978 
345 1 5.11 5.90052 171.064 
346 1 1.2775 8.11322 171.064 
347 1 5.11 7.37565 173.15 
348 1 1.2775 5.16296 173.15 
349 1 5.11 4.42539 175.237 
350 1 1.2775 6.63809 175.237 
351 1 5.11 5.90052 177.323 
352 1 1.2775 8.11322 177.323 
353 1 1.27427e-14 7.37565 179.409 
354 1 1.2775 5.16296 179.409 
355 1 5.11 4.42539 181.495 
356 1 1.2775 6.63809 181.495 
357 1 5.11 5.90052 183.581 
358 1 1.2775 8.11322 183.581 
359 1 1.31714e-14 7.37565 185.667 
360 1 1.2775 5.16296 185.667 
361 1 2.555 1.42313e-18 0 
362 1 3.8325 2.2127 0 
363 1 2.555 1.47513 2.08615 
364 1 3.8325 3.68783 2.08615 
365 1 2.555 2.95026 4.1723 
366 1 3.8325 0.737565 4.1723 
367 1 2.555 4.30133e-16 6.25845 
368 1 3.8325 2.2127 6.25845 
369 1 2.555 1.47513 8.3446 
370 1 3.8325 3.68783 8.3446 
371 1 2.555 2.95026 10.4307 
372 1 3.8325 0.737565 10.4307 
373 1 2.555 8.58842e-16 12.5169 
374 1 3.8325 2.2127 12.5169 
375 1 2.555 1.47513 14.603 
376 1 3.8325 3.68783 14.603 
377 1 2.555 2.95026 16.6892 
378 1 3.8325 0.737565 16.6892 
379 1 2.555 1.28755e-15 18.7753 
380 1 3.8325 2.2127 18.7753 
381 1 2.555 1.47513 20.8615 
382 1 3.8325 3.68783 20.8615 
383 1 2.555 2.95026 22.9476 
384 1 3.8325 0.737565 22.9476 
385 1 2.555 1.71626e-15 25.0338 
386 1 3.8325 2.2127 25.0338 
387 1 2.555 1.47513 27.1199 
388 1 3.8325 3.68783 27.1199 
389 1 2.555 2.95026 29.2061 
390 1 3.8325 0.737565 29.2061 
391 1 2.555 2.14497e-15 31.2922 
392 1 3.8325 2.2127 31.2922 
393 1 2.555 1.47513 33.3784 
394 1 3.8325 3.68783 33.3784 
395 1 2.555 2.95026 35.4645 
396 1 3.8325 0.737565 35.4645 
397 1 2.555 2.57368e-15 37.5507 
398 1 3.8325 2.2127 37.5507 
399 1 2.555 1.47513 39.6368 
400 1 3.8325 3.68783 39.6368 
401 1 2.555 2.95026 41.723 
402 1 3.8325 0.737565 41.723 
403 1 2.555 3.00239e-15 43.8091 
404 1 3.8325 2.2127 43.8091 
405 1 2.555 1.47513 45.8953 
406 1 3.8325 3.68783 45.8953 
407 1 2.555 2.95026 47.9814 
408 1 3.8325 0.737565 47.9814 
409 1 2.555 3.4311e-15 50.0676 
410 1 3.8325 2.2127 50.0676 
411 1 2.555 1.47513 52.1537 
412 1 3.8325 3.68783 52.1537 
413 1 2.555 2.95026 54.2399 
414 1 3.8325 0.737565 54.2399 
415 1 2.555 3.85981e-15 56.326 
416 1 3.8325 2.2127 56.326 
417 1 2.555 1.47513 58.4122 
418 1 3.8325 3.68783 58.4122 
419 1 2.555 2.95026 60.4983 
420 1 3.8325 0.737565 60.4983 
421 1 2.555 4.28852e-15 62.5845 
422 1 3.8325 2.2127 62.5845 
423 1 2.555 1.47513 64.6706 
424 1 3.8325 3.68783 64.6706 
425 1 2.555 2.95026 66.7568 
426 1 3.8325 0.737565 66.7568 
427 1 2.555 8.85078 68.8429 
428 1 3.8325 2.2127 68.8429 
429 1 2.555 1.47513 70.9291 
430 1 3.8325 3.68783 70.9291 
431 1 2.555 2.95026 73.0152 
432 1 3.8325 0.737565 73.0152 
433 1 2.555 8.85078 75.1014 
434 1 3.8325 2.2127 75.1014 
435 1 2.555 1.47513 77.1875 
436 1 3.8325 3.68783 77.1875 
437 1 2.555 2.95026 79.2737 
438 1 3.8325 0.737565 79.2737 
439 1 2.555 8.85078 81.3598 
440 1 3.8325 2.2127 81.3598 
441 1 2.555 1.47513 83.446 
442 1 3.8325 3.68783 83.446 
443 1 2.555 2.95026 85.5321 
444 1 3.8325 0.737565 85.5321 
445 1 2.555 8.85078 87.6183 
446 1 3.8325 2.2127 87.6183 
447 1 2.555 1.47513 89.7044 
448 1 3.8325 3.68783 89.7044 
449 1 2.555 2.95026 91.7906 
450 1 3.8325 0.737565 91.7906 
451 1 2.555 8.85078 93.8767 
452 1 3.8325 2.2127 93.8767 
453 1 2.555 1.47513 95.9629 
454 1 3.8325 3.68783 95.9629 
455 1 2.555 2.95026 98.049 
456 1 3.8325 0.737565 98.049 
457 1 2.555 8.85078 100.135 
458 1 3.8325 2.2127 100.135 
459 1 2.555 1.47513 102.221 
460 1 3.8325 3.68783 102.221 
461 1 2.555 2.95026 104.307 
462 1 3.8325 0.737565 104.307 
463 1 2.555 8.85078 106.394 
464 1 3.8325 2.2127 106.394 
465 1 2.555 1.47513 108.48 
466 1 3.8325 3.68783 108.48 
467 1 2.555 2.95026 110.566 
468 1 3.8325 0.737565 110.566 
469 1 2.555 8.85078 112.652 
470 1 3.8325 2.2127 112.652 
471 1 2.555 1.47513 114.738 
472 1 3.8325 3.68783 114.738 
473 1 2.555 2.95026 116.824 
474 1 3.8325 0.737565 116.824 
475 1 2.555 8.1469e-15 118.91 
476 1 3.8325 2.2127 118.91 
477 1 2.555 1.47513 120.997 
478 1 3.8325 3.68783 120.997 
479 1 2.555 2.95026 123.083 
480 1 3.8325 0.737565 123.083 
481 1 2.555 8.85078 125.169 
482 1 3.8325 2.2127 125.169 
483 1 2.555 1.47513 127.255 
484 1 3.8325 3.68783 127.255 
485 1 2.555 2.95026 129.341 
486 1 3.8325 0.737565 129.341 
487 1 2.555 8.85078 131.427 
488 1 3.8325 2.2127 131.427 
489 1 2.555 1.47513 133.514 
490 1 3.8325 3.68783 133.514 
491 1 2.555 2.95026 135.6 
492 1 3.8325 0.737565 135.6 
493 1 2.555 8.85078 137.686 
494 1 3.8325 2.2127 137.686 
495 1 2.555 1.47513 139.772 
496 1 3.8325 3.68783 139.772 
497 1 2.555 2.95026 141.858 
498 1 3.8325 0.737565 141.858 
499 1 2.555 9.86174e-15 143.944 
500 1 3.8325 2.2127 143.944 
501 1 2.555 1.47513 146.03 
502 1 3.8325 3.68783 146.03 
503 1 2.555 2.95026 148.117 
504 1 3.8325 0.737565 148.117 
505 1 2.555 1.02905e-14 150.203 
506 1 3.8325 2.2127 150.203 
507 1 2.555 1.47513 152.289 
508 1 3.8325 3.68783 152.289 
509 1 2.555 2.95026 154.375 
510 1 3.8325 0.737565 154.375 
511 1 2.555 8.85078 156.461 
512 1 3.8325 2.2127 156.461 
513 1 2.555 1.47513 158.547 
514 1 3.8325 3.68783 158.547 
515 1 2.555 2.95026 160.633 
516 1 3.8325 0.737565 160.633 
517 1 2.555 8.85078 162.72 
518 1 3.8325 2.2127 162.72 
519 1 2.555 1.47513 164.806 
520 1 3.8325 3.68783 164.806 
521 1 2.555 2.95026 166.892 
522 1 3.8325 0.737565 166.892 
523 1 2.555 8.85078 168.978 
524 1 3.8325 2.2127 168.978 
525 1 2.555 1.47513 171.064 
526 1 3.8325 3.68783 171.064 
527 1 2.555 2.95026 173.15 
528 1 3.8325 0.737565 173.15 
529 1 2.555 8.85078 175.237 
530 1 3.8325 2.2127 175.237 
531 1 2.555 1.47513 177.323 
532 1 3.8325 3.68783 177.323 
533 1 2.555 2.95026 179.409 
534 1 3.8325 0.737565 179.409 
535 1 2.555 8.85078 181.495 
536 1 3.8325 2.2127 181.495 
537 1 2.555 1.47513 183.581 
538 1 3.8325 3.68783 183.581 
539 1 2.555 2.95026 185.667 
540 1 3.8325 0.737565 185.667 
541 1 2.555 4.42539 0 
542 1 3.8325 6.63809 0 
543 1 2.555 5.90052 2.08615 
544 1 3.8325 8.11322 2.08615 
545 1 2.555 7.37565 4.1723 
546 1 3.8325 5.16296 4.1723 
547 1 2.555 4.42539 6.25845 
548 1 3.8325 6.63809 6.25845 
549 1 2.555 5.90052 8.3446 
550 1 3.8325 8.11322 8.3446 
551 1 2.555 7.37565 10.4307 
552 1 3.8325 5.16296 10.4307 
553 1 2.555 4.42539 12.5169 
554 1 3.8325 6.63809 12.5169 
555 1 2.555 5.90052 14.603 
556 1 3.8325 8.11322 14.603 
557 1 2.555 7.37565 16.6892 
558 1 3.8325 5.16296 16.6892 
559 1 2.555 4.42539 18.7753 
560 1 3.8325 6.63809 18.7753 
561 1 2.555 5.90052 20.8615 
562 1 3.8325 8.11322 20.8615 
563 1 2.555 7.37565 22.9476 
564 1 3.8325 5.16296 22.9476 
565 1 2.555 4.42539 25.0338 
566 1 3.8325 6.63809 25.0338 
567 1 2.555 5.90052 27.1199 
568 1 3.8325 8.11322 27.1199 
569 1 2.555 7.37565 29.2061 
570 1 3.8325 5.16296 29.2061 
571 1 2.555 4.42539 31.2922 
572 1 3.8325 6.63809 31.2922 
573 1 2.555 5.90052 33.3784 
574 1 3.8325 8.11322 33.3784 
575 1 2.555 7.37565 35.4645 
576 1 3.8325 5.16296 35.4645 
577 1 2.555 4.42539 37.5507 
578 1 3.8325 6.63809 37.5507 
579 1 2.555 5.90052 39.6368 
580 1 3.8325 8.11322 39.6368 
581 1 2.555 7.37565 41.723 
582 1 3.8325 5.16296 41.723 
583 1 2.555 4.42539 43.8091 
584 1 3.8325 6.63809 43.8091 
585 1 2.555 5.90052 45.8953 
586 1 3.8325 8.11322 45.8953 
587 1 2.555 7.37565 47.9814 
588 1 3.8325 5.16296 47.9814 
589 1 2.555 4.42539 50.0676 
590 1 3.8325 6.63809 50.0676 
591 1 2.555 5.90052 52.1537 
592 1 3.8325 8.11322 52.1537 
593 1 2.555 7.37565 54.2399 
594 1 3.8325 5.16296 54.2399 
595 1 2.555 4.42539 56.326 
596 1 3.8325 6.63809 56.326 
597 1 2.555 5.90052 58.4122 
598 1 3.8325 8.11322 58.4122 
599 1 2.555 7.37565 60.4983 
600 1 3.8325 5.16296 60.4983 
601 1 2.555 4.42539 62.5845 
602 1 3.8325 6.63809 62.5845 
603 1 2.555 5.90052 64.6706 
604 1 3.8325 8.11322 64.6706 
605 1 2.555 7.37565 66.7568 
606 1 3.8325 5.16296 66.7568 
607 1 2.555 4.42539 68.8429 
608 1 3.8325 6.63809 68.8429 
609 1 2.555 5.90052 70.9291 
610 1 3.8325 8.11322 70.9291 
611 1 2.555 7.37565 73.0152 
612 1 3.8325 5.16296 73.0152 
613 1 2.555 4.42539 75.1014 
614 1 3.8325 6.63809 75.1014 
615 1 2.555 5.90052 77.1875 
616 1 3.8325 8.11322 77.1875 
617 1 2.555 7.37565 79.2737 
618 1 3.8325 5.16296 79.2737 
619 1 2.555 4.42539 81.3598 
620 1 3.8325 6.63809 81.3598 
621 1 2.555 5.90052 83.446 
622 1 3.8325 8.11322 83.446 
623 1 2.555 7.37565 85.5321 
624 1 3.8325 5.16296 85.5321 
625 1 2.555 4.42539 87.6183 
626 1 3.8325 6.63809 87.6183 
627 1 2.555 5.90052 89.7044 
628 1 3.8325 8.11322 89.7044 
629 1 2.555 7.37565 91.7906 
630 1 3.8325 5.16296 91.7906 
631 1 2.555 4.42539 93.8767 
632 1 3.8325 6.63809 93.8767 
633 1 2.555 5.90052 95.9629 
634 1 3.8325 8.11322 95.9629 
635 1 2.555 7.37565 98.049 
636 1 3.8325 5.16296 98.049 
637 1 2.555 4.42539 100.135 
638 1 3.8325 6.63809 100.135 
639 1 2.555 5.90052 102.221 
640 1 3.8325 8.11322 102.221 
641 1 2.555 7.37565 104.307 
642 1 3.8325 5.16296 104.307 
643 1 2.555 4.42539 106.394 
644 1 3.8325 6.63809 106.394 
645 1 2.555 5.90052 108.48 
646 1 3.8325 8.11322 108.48 
647 1 2.555 7.37565 110.566 
648 1 3.8325 5.16296 110.566 
649 1 2.555 4.42539 112.652 
650 1 3.8325 6.63809 112.652 
651 1 2.555 5.90052 114.738 
652 1 3.8325 8.11322 114.738 
653 1 2.555 7.37565 116.824 
654 1 3.8325 5.16296 116.824 
655 1 2.555 4.42539 118.91 
656 1 3.8325 6.63809 118.91 
657 1 2.555 5.90052 120.997 
658 1 3.8325 8.11322 120.997 
659 1 2.555 7.37565 123.083 
660 1 3.8325 5.16296 123.083 
661 1 2.555 4.42539 125.169 
662 1 3.8325 6.63809 125.169 
663 1 2.555 5.90052 127.255 
664 1 3.8325 8.11322 127.255 
665 1 2.555 7.37565 129.341 
666 1 3.8325 5.16296 129.341 
667 1 2.555 4.42539 131.427 
668 1 3.8325 6.63809 131.427 
669 1 2.555 5.90052 133.514 
670 1 3.8325 8.11322 133.514 
671 1 2.555 7.37565 135.6 
672 1 3.8325 5.16296 135.6 
673 1 2.555 4.42539 137.686 
674 1 3.8325 6.63809 137.686 
675 1 2.555 5.90052 139.772 
676 1 3.8325 8.11322 139.772 
677 1 2.555 7.37565 141.858 
678 1 3.8325 5.16296 141.858 
679 1 2.555 4.42539 143.944 
680 1 3.8325 6.63809 143.944 
681 1 2.555 5.90052 146.03 
682 1 3.8325 8.11322 146.03 
683 1 2.555 7.37565 148.117 
684 1 3.8325 5.16296 148.117 
685 1 2.555 4.42539 150.203 
686 1 3.8325 6.63809 150.203 
687 1 2.555 5.90052 152.289 
688 1 3.8325 8.11322 152.289 
689 1 2.555 7.37565 154.375 
690 1 3.8325 5.16296 154.375 
691 1 2.555 4.42539 156.461 
692 1 3.8325 6.63809 156.461 
693 1 2.555 5.90052 158.547 
694 1 3.8325 8.11322 158.547 
695 1 2.555 7.37565 160.633 
696 1 3.8325 5.16296 160.633 
697 1 2.555 4.42539 162.72 
698 1 3.8325 6.63809 162.72 
699 1 2.555 5.90052 164.806 
700 1 3.8325 8.11322 164.806 
701 1 2.555 7.37565 166.892 
702 1 3.8325 5.16296 166.892 
703 1 2.555 4.42539 168.978 
704 1 3.8325 6.63809 168.978 
705 1 2.555 5.90052 171.064 
706 1 3.8325 8.11322 171.064 
707 1 2.555 7.37565 173.15 
708 1 3.8325 5.16296 173.15 
709 1 2.555 4.42539 175.237 
710 1 3.8325 6.63809 175.237 
711 1 2.555 5.90052 177.323 
712 1 3.8325 8.11322 177.323 
713 1 2.555 7.37565 179.409 
714 1 3.8325 5.16296 179.409 
715 1 2.555 4.42539 181.495 
716 1 3.8325 6.63809 181.495 
717 1 2.555 5.90052 183.581 
718 1 3.8325 8.11322 183.581 
719 1 2.555 7.37565 185.667 
720 1 3.8325 5.16296 185.667 
ITEM: TIMESTEP
1
ITEM: NUMBER OF ATOMS
720
ITEM: BOX BOUNDS xy xz yz pp pp ss
0 5.11 5.4195e-16
0 8.85078 1.27212e-14
-0.0207753 185.688 1.27212e-14
ITEM: ATOMS id type x y z 
1 1 1.91502e-16 1.93489e-16 0.00967058 
2 1 1.2775 2.2127 0.00967058 
3 1 -9.4386e-17 1.47513 2.07648 
4 1 1.2775 3.68783 2.07648 
5 1 9.3299e-16 2.95026 4.1723 
6 1 1.2775 0.737565 4.1723 
7 1 7.28364e-16 2.40925e-16 6.25845 
8 1 1.2775 2.2127 6.25845 
9 1 5.34434e-16 1.47513 8.3446 
10 1 1.2775 3.68783 8.3446 
11 1 8.09078e-16 2.95026 10.4307 
12 1 1.2775 0.737565 10.4307 
13 1 9.79438e-16 1.16401e-15 12.5169 
14 1 1.2775 2.2127 12.5169 
15 1 1.14927e-15 1.47513 14.603 
16 1 1.2775 3.68783 14.603 
17 1 1.56756e-15 2.95026 16.6892 
18 1 1.2775 0.737565 16.6892 
19 1 1.24187e-15 9.47402e-16 18.7753 
20 1 1.2775 2.2127 18.7753 
21 1 1.02521e-15 1.47513 20.8615 
22 1 1.2775 3.68783 20.8615 
23 1 1.63705e-15 2.95026 22.9476 
24 1 1.2775 0.737565 22.9476 
25 1 1.6361e-15 1.33423e-15 25.0338 
26 1 1.2775 2.2127 25.0338 
27 1 1.65503e-15 1.47513 27.1199 
28 1 1.2775 3.68783 27.1199 
29 1 2.15944e-15 2.95026 29.2061 
30 1 1.2775 0.737565 29.2061 
31 1 1.71837e-15 2.01265e-15 31.2922 
32 1 1.2775 2.2127 31.2922 
33 1 2.23998e-15 1.47513 33.3784 
34 1 1.2775 3.68783 33.3784 
35 1 2.02852e-15 2.95026 35.4645 
36 1 1.2775 0.737565 35.4645 
37 1 2.10572e-15 3.30062e-15 37.5507 
38 1 1.2775 2.2127 37.5507 
39 1 5.11 1.47513 39.6368 
40 1 1.2775 3.68783 39.6368 
41 1 5.11 2.95026 41.723 
42 1 1.2775 0.737565 41.723 
43 1 5.11 2.62835e-15 43.8091 
44 1 1.2775 2.2127 43.8091 
45 1 5.11 1.47513 45.8953 
46 1 1.2775 3.68783 45.8953 
47 1 5.11 2.95026 47.9814 
48 1 1.2775 0.737565 47.9814 
49 1 5.11 3.59254e-15 50.0676 
50 1 1.2775 2.2127 50.0676 
51 1 5.11 1.47513 52.1537 
52 1 1.2775 3.68783 52.1537 
53 1 5.11 2.95026 54.2399 
54 1 1.2775 0.737565 54.2399 
55 1 5.11 3.85646e-15 56.326 
56 1 1.2775 2.2127 56.326 
57 1 5.11 1.47513 58.4122 
58 1 1.2775 3.68783 58.4122 
59 1 5.11 2.95026 60.4983 
60 1 1.2775 0.737565 60.4983 
61 1 5.11 4.26159e-15 62.5845 
62 1 1.2775 2.2127 62.5845 
63 1 5.11 1.47513 64.6706 
64 1 1.2775 3.68783 64.6706 
65 1 5.11 2.95026 66.7568 
66 1 1.2775 0.737565 66.7568 
67 1 4.5705e-15 8.85078 68.8429 
68 1 1.2775 2.2127 68.8429 
69 1 5.11 1.47513 70.9291 
70 1 1.2775 3.68783 70.9291 
71 1 5.11 2.95026 73.0152 
72 1 1.2775 0.737565 73.0152 
73 1 5.37051e-15 8.85078 75.1014 
74 1 1.2775 2.2127 75.1014 
75 1 5.11 1.47513 77.1875 
76 1 1.2775 3.68783 77.1875 
77 1 5.11 2.95026 79.2737 
78 1 1.2775 0.737565 79.2737 
79 1 5.79498e-15 8.85078 81.3598 
80 1 1.2775 2.2127 81.3598 
81 1 5.11 1.47513 83.446 
82 1 1.2775 3.68783 83.446 
83 1 5.63949e-15 2.95026 85.5321 
84 1 1.2775 0.737565 85.5321 
85 1 5.11 8.85078 87.6183 
86 1 1.2775 2.2127 87.6183 
87 1 5.11 1.47513 89.7044 
88 1 1.2775 3.68783 89.7044 
89 1 5.11 2.95026 91.7906 
90 1 1.2775 0.737565 91.7906 
91 1 5.11 8.85078 93.8767 
92 1 1.2775 2.2127 93.8767 
93 1 5.11 1.47513 95.9629 
94 1 1.2775 3.68783 95.9629 
95 1 5.11 2.95026 98.049 
96 1 1.2775 0.737565 98.049 
97 1 6.88435e-15 8.85078 100.135 
98 1 1.2775 2.2127 100.135 
99 1 5.11 1.47513 102.221 
100 1 1.2775 3.68783 102.221 
101 1 5.11 2.95026 104.307 
102 1 1.2775 0.737565 104.307 
103 1 5.11 8.85078 106.394 
104 1 1.2775 2.2127 106.394 
105 1 5.11 1.47513 108.48 
106 1 1.2775 3.68783 108.48 
107 1 5.11 2.95026 110.566 
108 1 1.2775 0.737565 110.566 
109 1 7.43059e-15 8.85078 112.652 
110 1 1.2775 2.2127 112.652 
111 1 5.11 1.47513 114.738 
112 1 1.2775 3.68783 114.738 
113 1 5.11 2.95026 116.824 
114 1 1.2775 0.737565 116.824 
115 1 7.48086e-15 7.06121e-15 118.91 
116 1 1.2775 2.2127 118.91 
117 1 5.11 1.47513 120.997 
118 1 1.2775 3.68783 120.997 
119 1 5.11 2.95026 123.083 
120 1 1.2775 0.737565 123.083 
121 1 7.83493e-15 8.85078 125.169 
122 1 1.2775 2.2127 125.169 
123 1 5.11 1.47513 127.255 
124 1 1.2775 3.68783 127.255 
125 1 5.11 2.95026 129.341 
126 1 1.2775 0.737565 129.341 
127 1 8.59074e-15 8.85078 131.427 
128 1 1.2775 2.2127 131.427 
129 1 5.11 1.47513 133.514 
130 1 1.2775 3.68783 133.514 
131 1 5.11 2.95026 135.6 
132 1 1.2775 0.737565 135.6 
133 1 9.52019e-15 8.85078 137.686 
134 1 1.2775 2.2127 137.686 
135 1 5.11 1.47513 139.772 
136 1 1.2775 3.68783 139.772 
137 1 5.11 2.95026 141.858 
138 1 1.2775 0.737565 141.858 
139 1 9.33279e-15 8.91083e-15 143.944 
140 1 1.2775 2.2127 143.944 
141 1 5.11 1.47513 146.03 
142 1 1.2775 3.68783 146.03 
143 1 5.11 2.95026 148.117 
144 1 1.2775 0.737565 148.117 
145 1 9.56025e-15 9.84078e-15 150.203 
146 1 1.2775 2.2127 150.203 
147 1 9.77697e-15 1.47513 152.289 
148 1 1.2775 3.68783 152.289 
149 1 5.11 2.95026 154.375 
150 1 1.2775 0.737565 154.375 
151 1 5.11 8.85078 156.461 
152 1 1.2775 2.2127 156.461 
153 1 5.11 1.47513 158.547 
154 1 1.2775 3.68783 158.547 
155 1 5.11 2.95026 160.633 
156 1 1.2775 0.737565 160.633 
157 1 1.04635e-14 8.85078 162.72 
158 1 1.2775 2.2127 162.72 
159 1 5.11 1.47513 164.806 
160 1 1.2775 3.68783 164.806 
161 1 5.11 2.95026 166.892 
162 1 1.2775 0.737565 166.892 
163 1 1.129e-14 8.85078 168.978 
164 1 1.2775 2.2127 168.978 
165 1 5.11 1.47513 171.064 
166 1 1.2775 3.68783 171.064 
167 1 5.11 2.95026 173.15 
168 1 1.2775 0.737565 173.15 
169 1 1.15822e-14 8.85078 175.237 
170 1 1.2775 2.2127 175.237 
171 1 5.11 1.47513 177.323 
172 1 1.2775 3.68783 177.323 
173 1 5.11 2.95026 179.409 
174 1 1.2775 0.737565 179.409 
175 1 1.20585e-14 8.85078 181.495 
176 1 1.2775 2.2127 181.495 
177 1 5.11 1.47513 183.591 
178 1 1.2775 3.68783 183.591 
179 1 5.11 2.95026 185.658 
180 1 1.2775 0.737565 185.658 
181 1 1.53076e-15 4.42539 0.00967058 
182 1 1.2775 6.63809 0.00967058 
183 1 5.06827e-16 5.90052 2.07648 
184 1 1.2775 8.11322 2.07648 
185 1 7.11806e-16 7.37565 4.1723 
186 1 1.2775 5.16296 4.1723 
187 1 1.17102e-15 4.42539 6.25845 
188 1 1.2775 6.63809 6.25845 
189 1 1.00439e-15 5.90052 8.3446 
190 1 1.2775 8.11322 8.3446 
191 1 9.03769e-16 7.37565 10.4307 
192 1 1.2775 5.16296 10.4307 
193 1 1.89274e-15 4.42539 12.5169 
194 1 1.2775 6.63809 12.5169 
195 1 1.46201e-15 5.90052 14.603 
196 1 1.2775 8.11322 14.603 
197 1 1.44778e-15 7.37565 16.6892 
198 1 1.2775 5.16296 16.6892 
199 1 2.67609e-15 4.42539 18.7753 
200 1 1.2775 6.63809 18.7753 
201 1 1.37497e-15 5.90052 20.8615 
202 1 1.2775 8.11322 20.8615 
203 1 1.44256e-15 7.37565 22.9476 
204 1 1.2775 5.16296 22.9476 
205 1 2.72551e-15 4.42539 25.0338 
206 1 1.2775 6.63809 25.0338 
207 1 1.92756e-15 5.90052 27.1199 
208 1 1.2775 8.11322 27.1199 
209 1 2.13778e-15 7.37565 29.2061 
210 1 1.2775 5.16296 29.2061 
211 1 3.26994e-15 4.42539 31.2922 
212 1 1.2775 6.63809 31.2922 
213 1 2.58702e-15 5.90052 33.3784 
214 1 1.2775 8.11322 33.3784 
215 1 2.23071e-15 7.37565 35.4645 
216 1 1.2775 5.16296 35.4645 
217 1 2.90548e-15 4.42539 37.5507 
218 1 1.2775 6.63809 37.5507 
219 1 5.11 5.90052 39.6368 
220 1 1.2775 8.11322 39.6368 
221 1 5.11 7.37565 41.723 
222 1 1.2775 5.16296 41.723 
223 1 5.11 4.42539 43.8091 
224 1 1.2775 6.63809 43.8091 
225 1 5.11 5.90052 45.8953 
226 1 1.2775 8.11322 45.8953 
227 1 2.91102e-15 7.37565 47.9814 
228 1 1.2775 5.16296 47.9814 
229 1 5.11 4.42539 50.0676 
230 1 1.2775 6.63809 50.0676 
231 1 5.11 5.90052 52.1537 
232 1 1.2775 8.11322 52.1537 
233 1 5.11 7.37565 54.2399 
234 1 1.2775 5.16296 54.2399 
235 1 5.11 4.42539 56.326 
236 1 1.2775 6.63809 56.326 
237 1 5.11 5.90052 58.4122 
238 1 1.2775 8.11322 58.4122 
239 1 3.61084e-15 7.37565 60.4983 
240 1 1.2775 5.16296 60.4983 
241 1 5.11 4.42539 62.5845 
242 1 1.2775 6.63809 62.5845 
243 1 5.11 5.90052 64.6706 
244 1 1.2775 8.11322 64.6706 
245 1 4.49395e-15 7.37565 66.7568 
246 1 1.2775 5.16296 66.7568 
247 1 5.11 4.42539 68.8429 
248 1 1.2775 6.63809 68.8429 
249 1 5.11 5.90052 70.9291 
250 1 1.2775 8.11322 70.9291 
251 1 5.30748e-15 7.37565 73.0152 
252 1 1.2775 5.16296 73.0152 
253 1 5.11 4.42539 75.1014 
254 1 1.2775 6.63809 75.1014 
255 1 5.11 5.90052 77.1875 
256 1 1.2775 8.11322 77.1875 
257 1 5.35472e-15 7.37565 79.2737 
258 1 1.2775 5.16296 79.2737 
259 1 5.11 4.42539 81.3598 
260 1 1.2775 6.63809 81.3598 
261 1 5.11 5.90052 83.446 
262 1 1.2775 8.11322 83.446 
263 1 5.62485e-15 7.37565 85.5321 
264 1 1.2775 5.16296 85.5321 
265 1 5.11 4.42539 87.6183 
266 1 1.2775 6.63809 87.6183 
267 1 5.11 5.90052 89.7044 
268 1 1.2775 8.11322 89.7044 
269 1 5.11 7.37565 91.7906 
270 1 1.2775 5.16296 91.7906 
271 1 5.11 4.42539 93.8767 
272 1 1.2775 6.63809 93.8767 