 
 4 atoms 
 
 1 atom types
 0.00000000000000000000 4.11014700000000043900 xlo xhi
 0.00000000000000000000 4.11014700000000043900 ylo yhi
 0.00000000000000000000 4.11014700000000043900 zlo zhi
 0.00000000000000000000 0.00000000000000000000 0.00000000000000000000 xy xz yz
 
 Atoms 
 
	1	1	0.00000000000000000000	0.00000000000000000000	0.00000000000000000000
	2	1	2.05507350000000021950	2.05507350000000021950	0.00000000000000000000
	3	1	2.05507350000000021950	0.00000000000000000000	2.05507350000000021950
	4	1	0.00000000000000000000	2.05507350000000021950	2.05507350000000021950
