ITEM: TIMESTEP
0
ITEM: NUMBER OF ATOMS
4
ITEM: BOX BOUNDS xy xz yz pp pp pp
0 4.11015 0
0 4.11015 0
0 4.11015 0
ITEM: ATOMS id type x y z 
1 1 0 0 0 
2 1 2.05507 2.05507 0 
3 1 2.05507 0 2.05507 
4 1 0 2.05507 2.05507 
ITEM: TIMESTEP
1
ITEM: NUMBER OF ATOMS
4
ITEM: BOX BOUNDS xy xz yz pp pp pp
0 4.11015 0
0 4.11015 0
0 4.11015 0
ITEM: ATOMS id type x y z 
1 1 0 0 0 
2 1 2.05507 2.05507 0 
3 1 2.05507 0 2.05507 
4 1 0 2.05507 2.05507 
