 
 500 atoms 
 
 1 atom types
 0.00000000000000000000 18.06657979081537135357 xlo xhi
 0.00000000000000000000 31.29131619769222183436 ylo yhi
 0.00000000000000000000 29.50272479840150197106 zlo zhi
 0.00000000000000000000 0.00000000000000000000 0.00000000000000000000 xy xz yz
 
 Atoms 
 
	1	1	0.00000000000000000000	0.00000000000000000000	0.00000000000000000000
	2	1	1.80665797908153713536	3.12913161976922227225	0.00000000000000000000
	3	1	1.80665797908153713536	1.04334984644286743460	2.95027247984015028592
	4	1	0.00000000000000000000	4.17229593689090183517	2.95027247984015028592
	5	1	0.00000000000000000000	0.00000000000000000000	5.90054495968030057185
	6	1	1.80665797908153713536	3.12913161976922227225	5.90054495968030057185
	7	1	1.80665797908153713536	1.04334984644286743460	8.85081743952045130186
	8	1	0.00000000000000000000	4.17229593689090183517	8.85081743952045130186
	9	1	0.00000000000000000000	0.00000000000000000000	11.80108991936060114369
	10	1	1.80665797908153713536	3.12913161976922227225	11.80108991936060114369
	11	1	1.80665797908153713536	1.04334984644286743460	14.75136239920075098553
	12	1	0.00000000000000000000	4.17229593689090183517	14.75136239920075098553
	13	1	0.00000000000000000000	0.00000000000000000000	17.70163487904090260372
	14	1	1.80665797908153713536	3.12913161976922227225	17.70163487904090260372
	15	1	1.80665797908153713536	1.04334984644286743460	20.65190735888105422191
	16	1	0.00000000000000000000	4.17229593689090183517	20.65190735888105422191
	17	1	0.00000000000000000000	0.00000000000000000000	23.60217983872120228739
	18	1	1.80665797908153713536	3.12913161976922227225	23.60217983872120228739
	19	1	1.80665797908153713536	1.04334984644286743460	26.55245231856135390558
	20	1	0.00000000000000000000	4.17229593689090183517	26.55245231856135390558
	21	1	0.00000000000000000000	6.25826323953844454451	0.00000000000000000000
	22	1	1.80665797908153713536	9.38739485930766726085	0.00000000000000000000
	23	1	1.80665797908153713536	7.30161308598131242320	2.95027247984015028592
	24	1	0.00000000000000000000	10.43055917642934637968	2.95027247984015028592
	25	1	0.00000000000000000000	6.25826323953844454451	5.90054495968030057185
	26	1	1.80665797908153713536	9.38739485930766726085	5.90054495968030057185
	27	1	1.80665797908153713536	7.30161308598131242320	8.85081743952045130186
	28	1	0.00000000000000000000	10.43055917642934637968	8.85081743952045130186
	29	1	0.00000000000000000000	6.25826323953844454451	11.80108991936060114369
	30	1	1.80665797908153713536	9.38739485930766726085	11.80108991936060114369
	31	1	1.80665797908153713536	7.30161308598131242320	14.75136239920075098553
	32	1	0.00000000000000000000	10.43055917642934637968	14.75136239920075098553
	33	1	0.00000000000000000000	6.25826323953844454451	17.70163487904090260372
	34	1	1.80665797908153713536	9.38739485930766726085	17.70163487904090260372
	35	1	1.80665797908153713536	7.30161308598131242320	20.65190735888105422191
	36	1	0.00000000000000000000	10.43055917642934637968	20.65190735888105422191
	37	1	0.00000000000000000000	6.25826323953844454451	23.60217983872120228739
	38	1	1.80665797908153713536	9.38739485930766726085	23.60217983872120228739
	39	1	1.80665797908153713536	7.30161308598131242320	26.55245231856135390558
	40	1	0.00000000000000000000	10.43055917642934637968	26.55245231856135390558
	41	1	0.00000000000000000000	12.51652647907688908901	0.00000000000000000000
	42	1	1.80665797908153713536	15.64565809884611091718	0.00000000000000000000
	43	1	1.80665797908153713536	13.55987632551975607953	2.95027247984015028592
	44	1	0.00000000000000000000	16.68882241596779181236	2.95027247984015028592
	45	1	0.00000000000000000000	12.51652647907688908901	5.90054495968030057185
	46	1	1.80665797908153713536	15.64565809884611091718	5.90054495968030057185
	47	1	1.80665797908153713536	13.55987632551975607953	8.85081743952045130186
	48	1	0.00000000000000000000	16.68882241596779181236	8.85081743952045130186
	49	1	0.00000000000000000000	12.51652647907688908901	11.80108991936060114369
	50	1	1.80665797908153713536	15.64565809884611091718	11.80108991936060114369
	51	1	1.80665797908153713536	13.55987632551975607953	14.75136239920075098553
	52	1	0.00000000000000000000	16.68882241596779181236	14.75136239920075098553
	53	1	0.00000000000000000000	12.51652647907688908901	17.70163487904090260372
	54	1	1.80665797908153713536	15.64565809884611091718	17.70163487904090260372
	55	1	1.80665797908153713536	13.55987632551975607953	20.65190735888105422191
	56	1	0.00000000000000000000	16.68882241596779181236	20.65190735888105422191
	57	1	0.00000000000000000000	12.51652647907688908901	23.60217983872120228739
	58	1	1.80665797908153713536	15.64565809884611091718	23.60217983872120228739
	59	1	1.80665797908153713536	13.55987632551975607953	26.55245231856135390558
	60	1	0.00000000000000000000	16.68882241596779181236	26.55245231856135390558
	61	1	0.00000000000000000000	18.77478971861533452170	0.00000000000000000000
	62	1	1.80665797908153713536	21.90392133838455634987	0.00000000000000000000
	63	1	1.80665797908153713536	19.81813956505820328857	2.95027247984015028592
	64	1	0.00000000000000000000	22.94708565550623546869	2.95027247984015028592
	65	1	0.00000000000000000000	18.77478971861533452170	5.90054495968030057185
	66	1	1.80665797908153713536	21.90392133838455634987	5.90054495968030057185
	67	1	1.80665797908153713536	19.81813956505820328857	8.85081743952045130186
	68	1	0.00000000000000000000	22.94708565550623546869	8.85081743952045130186
	69	1	0.00000000000000000000	18.77478971861533452170	11.80108991936060114369
	70	1	1.80665797908153713536	21.90392133838455634987	11.80108991936060114369
	71	1	1.80665797908153713536	19.81813956505820328857	14.75136239920075098553
	72	1	0.00000000000000000000	22.94708565550623546869	14.75136239920075098553
	73	1	0.00000000000000000000	18.77478971861533452170	17.70163487904090260372
	74	1	1.80665797908153713536	21.90392133838455634987	17.70163487904090260372
	75	1	1.80665797908153713536	19.81813956505820328857	20.65190735888105422191
	76	1	0.00000000000000000000	22.94708565550623546869	20.65190735888105422191
	77	1	0.00000000000000000000	18.77478971861533452170	23.60217983872120228739
	78	1	1.80665797908153713536	21.90392133838455634987	23.60217983872120228739
	79	1	1.80665797908153713536	19.81813956505820328857	26.55245231856135390558
	80	1	0.00000000000000000000	22.94708565550623546869	26.55245231856135390558
	81	1	0.00000000000000000000	25.03305295815377817803	0.00000000000000000000
	82	1	1.80665797908153713536	28.16218457792300000619	0.00000000000000000000
	83	1	1.80665797908153713536	26.07640280459664694490	2.95027247984015028592
	84	1	0.00000000000000000000	29.20534889504467912502	2.95027247984015028592
	85	1	0.00000000000000000000	25.03305295815377817803	5.90054495968030057185
	86	1	1.80665797908153713536	28.16218457792300000619	5.90054495968030057185
	87	1	1.80665797908153713536	26.07640280459664694490	8.85081743952045130186
	88	1	0.00000000000000000000	29.20534889504467912502	8.85081743952045130186
	89	1	0.00000000000000000000	25.03305295815377817803	11.80108991936060114369
	90	1	1.80665797908153713536	28.16218457792300000619	11.80108991936060114369
	91	1	1.80665797908153713536	26.07640280459664694490	14.75136239920075098553
	92	1	0.00000000000000000000	29.20534889504467912502	14.75136239920075098553
	93	1	0.00000000000000000000	25.03305295815377817803	17.70163487904090260372
	94	1	1.80665797908153713536	28.16218457792300000619	17.70163487904090260372
	95	1	1.80665797908153713536	26.07640280459664694490	20.65190735888105422191
	96	1	0.00000000000000000000	29.20534889504467912502	20.65190735888105422191
	97	1	0.00000000000000000000	25.03305295815377817803	23.60217983872120228739
	98	1	1.80665797908153713536	28.16218457792300000619	23.60217983872120228739
	99	1	1.80665797908153713536	26.07640280459664694490	26.55245231856135390558
	100	1	0.00000000000000000000	29.20534889504467912502	26.55245231856135390558
	101	1	3.61331595816307427071	0.00000000000000000000	0.00000000000000000000
	102	1	5.41997393724461140607	3.12913161976922227225	0.00000000000000000000
	103	1	5.41997393724461140607	1.04334984644286743460	2.95027247984015028592
	104	1	3.61331595816307427071	4.17229593689090183517	2.95027247984015028592
	105	1	3.61331595816307427071	0.00000000000000000000	5.90054495968030057185
	106	1	5.41997393724461140607	3.12913161976922227225	5.90054495968030057185
	107	1	5.41997393724461140607	1.04334984644286743460	8.85081743952045130186
	108	1	3.61331595816307427071	4.17229593689090183517	8.85081743952045130186
	109	1	3.61331595816307427071	0.00000000000000000000	11.80108991936060114369
	110	1	5.41997393724461140607	3.12913161976922227225	11.80108991936060114369
	111	1	5.41997393724461140607	1.04334984644286743460	14.75136239920075098553
	112	1	3.61331595816307427071	4.17229593689090183517	14.75136239920075098553
	113	1	3.61331595816307427071	0.00000000000000000000	17.70163487904090260372
	114	1	5.41997393724461140607	3.12913161976922227225	17.70163487904090260372
	115	1	5.41997393724461140607	1.04334984644286743460	20.65190735888105422191
	116	1	3.61331595816307427071	4.17229593689090183517	20.65190735888105422191
	117	1	3.61331595816307427071	0.00000000000000000000	23.60217983872120228739
	118	1	5.41997393724461140607	3.12913161976922227225	23.60217983872120228739
	119	1	5.41997393724461140607	1.04334984644286743460	26.55245231856135390558
	120	1	3.61331595816307427071	4.17229593689090183517	26.55245231856135390558
	121	1	3.61331595816307427071	6.25826323953844454451	0.00000000000000000000
	122	1	5.41997393724461140607	9.38739485930766726085	0.00000000000000000000
	123	1	5.41997393724461140607	7.30161308598131242320	2.95027247984015028592
	124	1	3.61331595816307427071	10.43055917642934637968	2.95027247984015028592
	125	1	3.61331595816307427071	6.25826323953844454451	5.90054495968030057185
	126	1	5.41997393724461140607	9.38739485930766726085	5.90054495968030057185
	127	1	5.41997393724461140607	7.30161308598131242320	8.85081743952045130186
	128	1	3.61331595816307427071	10.43055917642934637968	8.85081743952045130186
	129	1	3.61331595816307427071	6.25826323953844454451	11.80108991936060114369
	130	1	5.41997393724461140607	9.38739485930766726085	11.80108991936060114369
	131	1	5.41997393724461140607	7.30161308598131242320	14.75136239920075098553
	132	1	3.61331595816307427071	10.43055917642934637968	14.75136239920075098553
	133	1	3.61331595816307427071	6.25826323953844454451	17.70163487904090260372
	134	1	5.41997393724461140607	9.38739485930766726085	17.70163487904090260372
	135	1	5.41997393724461140607	7.30161308598131242320	20.65190735888105422191
	136	1	3.61331595816307427071	10.43055917642934637968	20.65190735888105422191
	137	1	3.61331595816307427071	6.25826323953844454451	23.60217983872120228739
	138	1	5.41997393724461140607	9.38739485930766726085	23.60217983872120228739
	139	1	5.41997393724461140607	7.30161308598131242320	26.55245231856135390558
	140	1	3.61331595816307427071	10.43055917642934637968	26.55245231856135390558
	141	1	3.61331595816307427071	12.51652647907688908901	0.00000000000000000000
	142	1	5.41997393724461140607	15.64565809884611091718	0.00000000000000000000
	143	1	5.41997393724461140607	13.55987632551975607953	2.95027247984015028592
	144	1	3.61331595816307427071	16.68882241596779181236	2.95027247984015028592
	145	1	3.61331595816307427071	12.51652647907688908901	5.90054495968030057185
	146	1	5.41997393724461140607	15.64565809884611091718	5.90054495968030057185
	147	1	5.41997393724461140607	13.55987632551975607953	8.85081743952045130186
	148	1	3.61331595816307427071	16.68882241596779181236	8.85081743952045130186
	149	1	3.61331595816307427071	12.51652647907688908901	11.80108991936060114369
	150	1	5.41997393724461140607	15.64565809884611091718	11.80108991936060114369
	151	1	5.41997393724461140607	13.55987632551975607953	14.75136239920075098553
	152	1	3.61331595816307427071	16.68882241596779181236	14.75136239920075098553
	153	1	3.61331595816307427071	12.51652647907688908901	17.70163487904090260372
	154	1	5.41997393724461140607	15.64565809884611091718	17.70163487904090260372
	155	1	5.41997393724461140607	13.55987632551975607953	20.65190735888105422191
	156	1	3.61331595816307427071	16.68882241596779181236	20.65190735888105422191
	157	1	3.61331595816307427071	12.51652647907688908901	23.60217983872120228739
	158	1	5.41997393724461140607	15.64565809884611091718	23.60217983872120228739
	159	1	5.41997393724461140607	13.55987632551975607953	26.55245231856135390558
	160	1	3.61331595816307427071	16.68882241596779181236	26.55245231856135390558
	161	1	3.61331595816307427071	18.77478971861533452170	0.00000000000000000000
	162	1	5.41997393724461140607	21.90392133838455634987	0.00000000000000000000
	163	1	5.41997393724461140607	19.81813956505820328857	2.95027247984015028592
	164	1	3.61331595816307427071	22.94708565550623546869	2.95027247984015028592
	165	1	3.61331595816307427071	18.77478971861533452170	5.90054495968030057185
	166	1	5.41997393724461140607	21.90392133838455634987	5.90054495968030057185
	167	1	5.41997393724461140607	19.81813956505820328857	8.85081743952045130186
	168	1	3.61331595816307427071	22.94708565550623546869	8.85081743952045130186
	169	1	3.61331595816307427071	18.77478971861533452170	11.80108991936060114369
	170	1	5.41997393724461140607	21.90392133838455634987	11.80108991936060114369
	171	1	5.41997393724461140607	19.81813956505820328857	14.75136239920075098553
	172	1	3.61331595816307427071	22.94708565550623546869	14.75136239920075098553
	173	1	3.61331595816307427071	18.77478971861533452170	17.70163487904090260372
	174	1	5.41997393724461140607	21.90392133838455634987	17.70163487904090260372
	175	1	5.41997393724461140607	19.81813956505820328857	20.65190735888105422191
	176	1	3.61331595816307427071	22.94708565550623546869	20.65190735888105422191
	177	1	3.61331595816307427071	18.77478971861533452170	23.60217983872120228739
	178	1	5.41997393724461140607	21.90392133838455634987	23.60217983872120228739
	179	1	5.41997393724461140607	19.81813956505820328857	26.55245231856135390558
	180	1	3.61331595816307427071	22.94708565550623546869	26.55245231856135390558
	181	1	3.61331595816307427071	25.03305295815377817803	0.00000000000000000000
	182	1	5.41997393724461140607	28.16218457792300000619	0.00000000000000000000
	183	1	5.41997393724461140607	26.07640280459664694490	2.95027247984015028592
	184	1	3.61331595816307427071	29.20534889504467912502	2.95027247984015028592
	185	1	3.61331595816307427071	25.03305295815377817803	5.90054495968030057185
	186	1	5.41997393724461140607	28.16218457792300000619	5.90054495968030057185
	187	1	5.41997393724461140607	26.07640280459664694490	8.85081743952045130186
	188	1	3.61331595816307427071	29.20534889504467912502	8.85081743952045130186
	189	1	3.61331595816307427071	25.03305295815377817803	11.80108991936060114369
	190	1	5.41997393724461140607	28.16218457792300000619	11.80108991936060114369
	191	1	5.41997393724461140607	26.07640280459664694490	14.75136239920075098553
	192	1	3.61331595816307427071	29.20534889504467912502	14.75136239920075098553
	193	1	3.61331595816307427071	25.03305295815377817803	17.70163487904090260372
	194	1	5.41997393724461140607	28.16218457792300000619	17.70163487904090260372
	195	1	5.41997393724461140607	26.07640280459664694490	20.65190735888105422191
	196	1	3.61331595816307427071	29.20534889504467912502	20.65190735888105422191
	197	1	3.61331595816307427071	25.03305295815377817803	23.60217983872120228739
	198	1	5.41997393724461140607	28.16218457792300000619	23.60217983872120228739
	199	1	5.41997393724461140607	26.07640280459664694490	26.55245231856135390558
	200	1	3.61331595816307427071	29.20534889504467912502	26.55245231856135390558
	201	1	7.22663191632614854143	0.00000000000000000000	0.00000000000000000000
	202	1	9.03328989540768567679	3.12913161976922227225	0.00000000000000000000
	203	1	9.03328989540768567679	1.04334984644286743460	2.95027247984015028592
	204	1	7.22663191632614854143	4.17229593689090183517	2.95027247984015028592
	205	1	7.22663191632614854143	0.00000000000000000000	5.90054495968030057185
	206	1	9.03328989540768567679	3.12913161976922227225	5.90054495968030057185
	207	1	9.03328989540768567679	1.04334984644286743460	8.85081743952045130186
	208	1	7.22663191632614854143	4.17229593689090183517	8.85081743952045130186
	209	1	7.22663191632614854143	0.00000000000000000000	11.80108991936060114369
	210	1	9.03328989540768567679	3.12913161976922227225	11.80108991936060114369
	211	1	9.03328989540768567679	1.04334984644286743460	14.75136239920075098553
	212	1	7.22663191632614854143	4.17229593689090183517	14.75136239920075098553
	213	1	7.22663191632614854143	0.00000000000000000000	17.70163487904090260372
	214	1	9.03328989540768567679	3.12913161976922227225	17.70163487904090260372
	215	1	9.03328989540768567679	1.04334984644286743460	20.65190735888105422191
	216	1	7.22663191632614854143	4.17229593689090183517	20.65190735888105422191
	217	1	7.22663191632614854143	0.00000000000000000000	23.60217983872120228739
	218	1	9.03328989540768567679	3.12913161976922227225	23.60217983872120228739
	219	1	9.03328989540768567679	1.04334984644286743460	26.55245231856135390558
	220	1	7.22663191632614854143	4.17229593689090183517	26.55245231856135390558
	221	1	7.22663191632614854143	6.25826323953844454451	0.00000000000000000000
	222	1	9.03328989540768567679	9.38739485930766726085	0.00000000000000000000
	223	1	9.03328989540768567679	7.30161308598131242320	2.95027247984015028592
	224	1	7.22663191632614854143	10.43055917642934637968	2.95027247984015028592
	225	1	7.22663191632614854143	6.25826323953844454451	5.90054495968030057185
	226	1	9.03328989540768567679	9.38739485930766726085	5.90054495968030057185
	227	1	9.03328989540768567679	7.30161308598131242320	8.85081743952045130186
	228	1	7.22663191632614854143	10.43055917642934637968	8.85081743952045130186
	229	1	7.22663191632614854143	6.25826323953844454451	11.80108991936060114369
	230	1	9.03328989540768567679	9.38739485930766726085	11.80108991936060114369
	231	1	9.03328989540768567679	7.30161308598131242320	14.75136239920075098553
	232	1	7.22663191632614854143	10.43055917642934637968	14.75136239920075098553
	233	1	7.22663191632614854143	6.25826323953844454451	17.70163487904090260372
	234	1	9.03328989540768567679	9.38739485930766726085	17.70163487904090260372
	235	1	9.03328989540768567679	7.30161308598131242320	20.65190735888105422191
	236	1	7.22663191632614854143	10.43055917642934637968	20.65190735888105422191
	237	1	7.22663191632614854143	6.25826323953844454451	23.60217983872120228739
	238	1	9.03328989540768567679	9.38739485930766726085	23.60217983872120228739
	239	1	9.03328989540768567679	7.30161308598131242320	26.55245231856135390558
	240	1	7.22663191632614854143	10.43055917642934637968	26.55245231856135390558
	241	1	7.22663191632614854143	12.51652647907688908901	0.00000000000000000000
	242	1	9.03328989540768567679	15.64565809884611091718	0.00000000000000000000
	243	1	9.03328989540768567679	13.55987632551975607953	2.95027247984015028592
	244	1	7.22663191632614854143	16.68882241596779181236	2.95027247984015028592
	245	1	7.22663191632614854143	12.51652647907688908901	5.90054495968030057185
	246	1	9.03328989540768567679	15.64565809884611091718	5.90054495968030057185
	247	1	9.03328989540768567679	13.55987632551975607953	8.85081743952045130186
	248	1	7.22663191632614854143	16.68882241596779181236	8.85081743952045130186
	249	1	7.22663191632614854143	12.51652647907688908901	11.80108991936060114369
	250	1	9.03328989540768567679	15.64565809884611091718	11.80108991936060114369
	251	1	9.03328989540768567679	13.55987632551975607953	14.75136239920075098553
	252	1	7.22663191632614854143	16.68882241596779181236	14.75136239920075098553
	253	1	7.22663191632614854143	12.51652647907688908901	17.70163487904090260372
	254	1	9.03328989540768567679	15.64565809884611091718	17.70163487904090260372
	255	1	9.03328989540768567679	13.55987632551975607953	20.65190735888105422191
	256	1	7.22663191632614854143	16.68882241596779181236	20.65190735888105422191
	257	1	7.22663191632614854143	12.51652647907688908901	23.60217983872120228739
	258	1	9.03328989540768567679	15.64565809884611091718	23.60217983872120228739
	259	1	9.03328989540768567679	13.55987632551975607953	26.55245231856135390558
	260	1	7.22663191632614854143	16.68882241596779181236	26.55245231856135390558
	261	1	7.22663191632614854143	18.77478971861533452170	0.00000000000000000000
	262	1	9.03328989540768567679	21.90392133838455634987	0.00000000000000000000
	263	1	9.03328989540768567679	19.81813956505820328857	2.95027247984015028592
	264	1	7.22663191632614854143	22.94708565550623546869	2.95027247984015028592
	265	1	7.22663191632614854143	18.77478971861533452170	5.90054495968030057185
	266	1	9.03328989540768567679	21.90392133838455634987	5.90054495968030057185
	267	1	9.03328989540768567679	19.81813956505820328857	8.85081743952045130186
	268	1	7.22663191632614854143	22.94708565550623546869	8.85081743952045130186
	269	1	7.22663191632614854143	18.77478971861533452170	11.80108991936060114369
	270	1	9.03328989540768567679	21.90392133838455634987	11.80108991936060114369
	271	1	9.03328989540768567679	19.81813956505820328857	14.75136239920075098553
	272	1	7.22663191632614854143	22.94708565550623546869	14.75136239920075098553
	273	1	7.22663191632614854143	18.77478971861533452170	17.70163487904090260372
	274	1	9.03328989540768567679	21.90392133838455634987	17.70163487904090260372
	275	1	9.03328989540768567679	19.81813956505820328857	20.65190735888105422191
	276	1	7.22663191632614854143	22.94708565550623546869	20.65190735888105422191
	277	1	7.22663191632614854143	18.77478971861533452170	23.60217983872120228739
	278	1	9.03328989540768567679	21.90392133838455634987	23.60217983872120228739
	279	1	9.03328989540768567679	19.81813956505820328857	26.55245231856135390558
	280	1	7.22663191632614854143	22.94708565550623546869	26.55245231856135390558
	281	1	7.22663191632614854143	25.03305295815377817803	0.00000000000000000000
	282	1	9.03328989540768567679	28.16218457792300000619	0.00000000000000000000
	283	1	9.03328989540768567679	26.07640280459664694490	2.95027247984015028592
	284	1	7.22663191632614854143	29.20534889504467912502	2.95027247984015028592
	285	1	7.22663191632614854143	25.03305295815377817803	5.90054495968030057185
	286	1	9.03328989540768567679	28.16218457792300000619	5.90054495968030057185
	287	1	9.03328989540768567679	26.07640280459664694490	8.85081743952045130186
	288	1	7.22663191632614854143	29.20534889504467912502	8.85081743952045130186
	289	1	7.22663191632614854143	25.03305295815377817803	11.80108991936060114369
	290	1	9.03328989540768567679	28.16218457792300000619	11.80108991936060114369
	291	1	9.03328989540768567679	26.07640280459664694490	14.75136239920075098553
	292	1	7.22663191632614854143	29.20534889504467912502	14.75136239920075098553
	293	1	7.22663191632614854143	25.03305295815377817803	17.70163487904090260372
	294	1	9.03328989540768567679	28.16218457792300000619	17.70163487904090260372
	295	1	9.03328989540768567679	26.07640280459664694490	20.65190735888105422191
	296	1	7.22663191632614854143	29.20534889504467912502	20.65190735888105422191
	297	1	7.22663191632614854143	25.03305295815377817803	23.60217983872120228739
	298	1	9.03328989540768567679	28.16218457792300000619	23.60217983872120228739
	299	1	9.03328989540768567679	26.07640280459664694490	26.55245231856135390558
	300	1	7.22663191632614854143	29.20534889504467912502	26.55245231856135390558
	301	1	10.83994787448922281214	0.00000000000000000000	0.00000000000000000000
	302	1	12.64660585357075994750	3.12913161976922227225	0.00000000000000000000
	303	1	12.64660585357075994750	1.04334984644286743460	2.95027247984015028592
	304	1	10.83994787448922281214	4.17229593689090183517	2.95027247984015028592
	305	1	10.83994787448922281214	0.00000000000000000000	5.90054495968030057185
	306	1	12.64660585357075994750	3.12913161976922227225	5.90054495968030057185
	307	1	12.64660585357075994750	1.04334984644286743460	8.85081743952045130186
	308	1	10.83994787448922281214	4.17229593689090183517	8.85081743952045130186
	309	1	10.83994787448922281214	0.00000000000000000000	11.80108991936060114369
	310	1	12.64660585357075994750	3.12913161976922227225	11.80108991936060114369
	311	1	12.64660585357075994750	1.04334984644286743460	14.75136239920075098553
	312	1	10.83994787448922281214	4.17229593689090183517	14.75136239920075098553
	313	1	10.83994787448922281214	0.00000000000000000000	17.70163487904090260372
	314	1	12.64660585357075994750	3.12913161976922227225	17.70163487904090260372
	315	1	12.64660585357075994750	1.04334984644286743460	20.65190735888105422191
	316	1	10.83994787448922281214	4.17229593689090183517	20.65190735888105422191
	317	1	10.83994787448922281214	0.00000000000000000000	23.60217983872120228739
	318	1	12.64660585357075994750	3.12913161976922227225	23.60217983872120228739
	319	1	12.64660585357075994750	1.04334984644286743460	26.55245231856135390558
	320	1	10.83994787448922281214	4.17229593689090183517	26.55245231856135390558
	321	1	10.83994787448922281214	6.25826323953844454451	0.00000000000000000000
	322	1	12.64660585357075994750	9.38739485930766726085	0.00000000000000000000
	323	1	12.64660585357075994750	7.30161308598131242320	2.95027247984015028592
	324	1	10.83994787448922281214	10.43055917642934637968	2.95027247984015028592
	325	1	10.83994787448922281214	6.25826323953844454451	5.90054495968030057185
	326	1	12.64660585357075994750	9.38739485930766726085	5.90054495968030057185
	327	1	12.64660585357075994750	7.30161308598131242320	8.85081743952045130186
	328	1	10.83994787448922281214	10.43055917642934637968	8.85081743952045130186
	329	1	10.83994787448922281214	6.25826323953844454451	11.80108991936060114369
	330	1	12.64660585357075994750	9.38739485930766726085	11.80108991936060114369
	331	1	12.64660585357075994750	7.30161308598131242320	14.75136239920075098553
	332	1	10.83994787448922281214	10.43055917642934637968	14.75136239920075098553
	333	1	10.83994787448922281214	6.25826323953844454451	17.70163487904090260372
	334	1	12.64660585357075994750	9.38739485930766726085	17.70163487904090260372
	335	1	12.64660585357075994750	7.30161308598131242320	20.65190735888105422191
	336	1	10.83994787448922281214	10.43055917642934637968	20.65190735888105422191
	337	1	10.83994787448922281214	6.25826323953844454451	23.60217983872120228739
	338	1	12.64660585357075994750	9.38739485930766726085	23.60217983872120228739
	339	1	12.64660585357075994750	7.30161308598131242320	26.55245231856135390558
	340	1	10.83994787448922281214	10.43055917642934637968	26.55245231856135390558
	341	1	10.83994787448922281214	12.51652647907688908901	0.00000000000000000000
	342	1	12.64660585357075994750	15.64565809884611091718	0.00000000000000000000
	343	1	12.64660585357075994750	13.55987632551975607953	2.95027247984015028592
	344	1	10.83994787448922281214	16.68882241596779181236	2.95027247984015028592
	345	1	10.83994787448922281214	12.51652647907688908901	5.90054495968030057185
	346	1	12.64660585357075994750	15.64565809884611091718	5.90054495968030057185
	347	1	12.64660585357075994750	13.55987632551975607953	8.85081743952045130186
	348	1	10.83994787448922281214	16.68882241596779181236	8.85081743952045130186
	349	1	10.83994787448922281214	12.51652647907688908901	11.80108991936060114369
	350	1	12.64660585357075994750	15.64565809884611091718	11.80108991936060114369
	351	1	12.64660585357075994750	13.55987632551975607953	14.75136239920075098553
	352	1	10.83994787448922281214	16.68882241596779181236	14.75136239920075098553
	353	1	10.83994787448922281214	12.51652647907688908901	17.70163487904090260372
	354	1	12.64660585357075994750	15.64565809884611091718	17.70163487904090260372
	355	1	12.64660585357075994750	13.55987632551975607953	20.65190735888105422191
	356	1	10.83994787448922281214	16.68882241596779181236	20.65190735888105422191
	357	1	10.83994787448922281214	12.51652647907688908901	23.60217983872120228739
	358	1	12.64660585357075994750	15.64565809884611091718	23.60217983872120228739
	359	1	12.64660585357075994750	13.55987632551975607953	26.55245231856135390558
	360	1	10.83994787448922281214	16.68882241596779181236	26.55245231856135390558
	361	1	10.83994787448922281214	18.77478971861533452170	0.00000000000000000000
	362	1	12.64660585357075994750	21.90392133838455634987	0.00000000000000000000
	363	1	12.64660585357075994750	19.81813956505820328857	2.95027247984015028592
	364	1	10.83994787448922281214	22.94708565550623546869	2.95027247984015028592
	365	1	10.83994787448922281214	18.77478971861533452170	5.90054495968030057185
	366	1	12.64660585357075994750	21.90392133838455634987	5.90054495968030057185
	367	1	12.64660585357075994750	19.81813956505820328857	8.85081743952045130186
	368	1	10.83994787448922281214	22.94708565550623546869	8.85081743952045130186
	369	1	10.83994787448922281214	18.77478971861533452170	11.80108991936060114369
	370	1	12.64660585357075994750	21.90392133838455634987	11.80108991936060114369
	371	1	12.64660585357075994750	19.81813956505820328857	14.75136239920075098553
	372	1	10.83994787448922281214	22.94708565550623546869	14.75136239920075098553
	373	1	10.83994787448922281214	18.77478971861533452170	17.70163487904090260372
	374	1	12.64660585357075994750	21.90392133838455634987	17.70163487904090260372
	375	1	12.64660585357075994750	19.81813956505820328857	20.65190735888105422191
	376	1	10.83994787448922281214	22.94708565550623546869	20.65190735888105422191
	377	1	10.83994787448922281214	18.77478971861533452170	23.60217983872120228739
	378	1	12.64660585357075994750	21.90392133838455634987	23.60217983872120228739
	379	1	12.64660585357075994750	19.81813956505820328857	26.55245231856135390558
	380	1	10.83994787448922281214	22.94708565550623546869	26.55245231856135390558
	381	1	10.83994787448922281214	25.03305295815377817803	0.00000000000000000000
	382	1	12.64660585357075994750	28.16218457792300000619	0.00000000000000000000
	383	1	12.64660585357075994750	26.07640280459664694490	2.95027247984015028592
	384	1	10.83994787448922281214	29.20534889504467912502	2.95027247984015028592
	385	1	10.83994787448922281214	25.03305295815377817803	5.90054495968030057185