 
 384 atoms 
 
 1 atom types
 0.00000000000000000000 13.30317879612521281274 xlo xhi
 0.00000000000000000000 30.72237543608245502469 ylo yhi
 0.00000000000000000000 18.81353587615445732695 zlo zhi
 
 Atoms 
 
	1	1	0.00000000000000000000	0.00000000000000000000	0.00000000000000000000
	2	1	0.00000000000000000000	0.00000000000000000000	7.05507595355792105352
	3	1	2.21719646602086895015	0.00000000000000000000	0.78389732817310242563
	4	1	2.21719646602086895015	0.00000000000000000000	3.13558931269240970252
	5	1	4.43439293204173790031	0.00000000000000000000	3.91948664086551223917
	6	1	4.43439293204173790031	0.00000000000000000000	6.27117862538481940504
	7	1	1.10859823301043447508	1.92014846475515343904	3.91948664086551223917
	8	1	1.10859823301043447508	1.92014846475515343904	6.27117862538481940504
	9	1	3.32579469903130320318	1.92014846475515343904	0.00000000000000000000
	10	1	3.32579469903130320318	1.92014846475515343904	7.05507595355792105352
	11	1	5.54299116505217170925	1.92014846475515343904	0.78389732817310242563
	12	1	5.54299116505217170925	1.92014846475515343904	3.13558931269240970252
	13	1	0.00000000000000000000	0.00000000000000000000	9.40676793807722866347
	14	1	0.00000000000000000000	0.00000000000000000000	16.46184389163514794063
	15	1	2.21719646602086895015	0.00000000000000000000	10.19066526625033120013
	16	1	2.21719646602086895015	0.00000000000000000000	12.54235725076963881008
	17	1	4.43439293204173790031	0.00000000000000000000	13.32625457894274134674
	18	1	4.43439293204173790031	0.00000000000000000000	15.67794656346204718034
	19	1	1.10859823301043447508	1.92014846475515343904	13.32625457894274134674
	20	1	1.10859823301043447508	1.92014846475515343904	15.67794656346204718034
	21	1	3.32579469903130320318	1.92014846475515343904	9.40676793807722866347
	22	1	3.32579469903130320318	1.92014846475515343904	16.46184389163514794063
	23	1	5.54299116505217170925	1.92014846475515343904	10.19066526625033120013
	24	1	5.54299116505217170925	1.92014846475515343904	12.54235725076963881008
	25	1	0.00000000000000000000	3.84029692951030687809	0.00000000000000000000
	26	1	0.00000000000000000000	3.84029692951030687809	7.05507595355792105352
	27	1	2.21719646602086895015	3.84029692951030687809	0.78389732817310242563
	28	1	2.21719646602086895015	3.84029692951030687809	3.13558931269240970252
	29	1	4.43439293204173790031	3.84029692951030687809	3.91948664086551223917
	30	1	4.43439293204173790031	3.84029692951030687809	6.27117862538481940504
	31	1	1.10859823301043447508	5.76044539426546009508	3.91948664086551223917
	32	1	1.10859823301043447508	5.76044539426546009508	6.27117862538481940504
	33	1	3.32579469903130320318	5.76044539426546009508	0.00000000000000000000
	34	1	3.32579469903130320318	5.76044539426546009508	7.05507595355792105352
	35	1	5.54299116505217170925	5.76044539426546009508	0.78389732817310242563
	36	1	5.54299116505217170925	5.76044539426546009508	3.13558931269240970252
	37	1	0.00000000000000000000	3.84029692951030687809	9.40676793807722866347
	38	1	0.00000000000000000000	3.84029692951030687809	16.46184389163514794063
	39	1	2.21719646602086895015	3.84029692951030687809	10.19066526625033120013
	40	1	2.21719646602086895015	3.84029692951030687809	12.54235725076963881008
	41	1	4.43439293204173790031	3.84029692951030687809	13.32625457894274134674
	42	1	4.43439293204173790031	3.84029692951030687809	15.67794656346204718034
	43	1	1.10859823301043447508	5.76044539426546009508	13.32625457894274134674
	44	1	1.10859823301043447508	5.76044539426546009508	15.67794656346204718034
	45	1	3.32579469903130320318	5.76044539426546009508	9.40676793807722866347
	46	1	3.32579469903130320318	5.76044539426546009508	16.46184389163514794063
	47	1	5.54299116505217170925	5.76044539426546009508	10.19066526625033120013
	48	1	5.54299116505217170925	5.76044539426546009508	12.54235725076963881008
	49	1	0.00000000000000000000	7.68059385902061375617	0.00000000000000000000
	50	1	0.00000000000000000000	7.68059385902061375617	7.05507595355792105352
	51	1	2.21719646602086895015	7.68059385902061375617	0.78389732817310242563
	52	1	2.21719646602086895015	7.68059385902061375617	3.13558931269240970252
	53	1	4.43439293204173790031	7.68059385902061375617	3.91948664086551223917
	54	1	4.43439293204173790031	7.68059385902061375617	6.27117862538481940504
	55	1	1.10859823301043447508	9.60074232377576741726	3.91948664086551223917
	56	1	1.10859823301043447508	9.60074232377576741726	6.27117862538481940504
	57	1	3.32579469903130320318	9.60074232377576741726	0.00000000000000000000
	58	1	3.32579469903130320318	9.60074232377576741726	7.05507595355792105352
	59	1	5.54299116505217170925	9.60074232377576741726	0.78389732817310242563
	60	1	5.54299116505217170925	9.60074232377576741726	3.13558931269240970252
	61	1	0.00000000000000000000	7.68059385902061375617	9.40676793807722866347
	62	1	0.00000000000000000000	7.68059385902061375617	16.46184389163514794063
	63	1	2.21719646602086895015	7.68059385902061375617	10.19066526625033120013
	64	1	2.21719646602086895015	7.68059385902061375617	12.54235725076963881008
	65	1	4.43439293204173790031	7.68059385902061375617	13.32625457894274134674
	66	1	4.43439293204173790031	7.68059385902061375617	15.67794656346204718034
	67	1	1.10859823301043447508	9.60074232377576741726	13.32625457894274134674
	68	1	1.10859823301043447508	9.60074232377576741726	15.67794656346204718034
	69	1	3.32579469903130320318	9.60074232377576741726	9.40676793807722866347
	70	1	3.32579469903130320318	9.60074232377576741726	16.46184389163514794063
	71	1	5.54299116505217170925	9.60074232377576741726	10.19066526625033120013
	72	1	5.54299116505217170925	9.60074232377576741726	12.54235725076963881008
	73	1	0.00000000000000000000	11.52089078853092019017	0.00000000000000000000
	74	1	0.00000000000000000000	11.52089078853092019017	7.05507595355792105352
	75	1	2.21719646602086895015	11.52089078853092019017	0.78389732817310242563
	76	1	2.21719646602086895015	11.52089078853092019017	3.13558931269240970252
	77	1	4.43439293204173790031	11.52089078853092019017	3.91948664086551223917
	78	1	4.43439293204173790031	11.52089078853092019017	6.27117862538481940504
	79	1	1.10859823301043447508	13.44103925328607296308	3.91948664086551223917
	80	1	1.10859823301043447508	13.44103925328607296308	6.27117862538481940504
	81	1	3.32579469903130320318	13.44103925328607296308	0.00000000000000000000
	82	1	3.32579469903130320318	13.44103925328607296308	7.05507595355792105352
	83	1	5.54299116505217170925	13.44103925328607296308	0.78389732817310242563
	84	1	5.54299116505217170925	13.44103925328607296308	3.13558931269240970252
	85	1	0.00000000000000000000	11.52089078853092019017	9.40676793807722866347
	86	1	0.00000000000000000000	11.52089078853092019017	16.46184389163514794063
	87	1	2.21719646602086895015	11.52089078853092019017	10.19066526625033120013
	88	1	2.21719646602086895015	11.52089078853092019017	12.54235725076963881008
	89	1	4.43439293204173790031	11.52089078853092019017	13.32625457894274134674
	90	1	4.43439293204173790031	11.52089078853092019017	15.67794656346204718034
	91	1	1.10859823301043447508	13.44103925328607296308	13.32625457894274134674
	92	1	1.10859823301043447508	13.44103925328607296308	15.67794656346204718034
	93	1	3.32579469903130320318	13.44103925328607296308	9.40676793807722866347
	94	1	3.32579469903130320318	13.44103925328607296308	16.46184389163514794063
	95	1	5.54299116505217170925	13.44103925328607296308	10.19066526625033120013
	96	1	5.54299116505217170925	13.44103925328607296308	12.54235725076963881008
	97	1	0.00000000000000000000	15.36118771804122751234	0.00000000000000000000
	98	1	0.00000000000000000000	15.36118771804122751234	7.05507595355792105352
	99	1	2.21719646602086895015	15.36118771804122751234	0.78389732817310242563
	100	1	2.21719646602086895015	15.36118771804122751234	3.13558931269240970252
	101	1	4.43439293204173790031	15.36118771804122751234	3.91948664086551223917
	102	1	4.43439293204173790031	15.36118771804122751234	6.27117862538481940504
	103	1	1.10859823301043447508	17.28133618279638028525	3.91948664086551223917
	104	1	1.10859823301043447508	17.28133618279638028525	6.27117862538481940504
	105	1	3.32579469903130320318	17.28133618279638028525	0.00000000000000000000
	106	1	3.32579469903130320318	17.28133618279638028525	7.05507595355792105352
	107	1	5.54299116505217170925	17.28133618279638028525	0.78389732817310242563
	108	1	5.54299116505217170925	17.28133618279638028525	3.13558931269240970252
	109	1	0.00000000000000000000	15.36118771804122751234	9.40676793807722866347
	110	1	0.00000000000000000000	15.36118771804122751234	16.46184389163514794063
	111	1	2.21719646602086895015	15.36118771804122751234	10.19066526625033120013
	112	1	2.21719646602086895015	15.36118771804122751234	12.54235725076963881008
	113	1	4.43439293204173790031	15.36118771804122751234	13.32625457894274134674
	114	1	4.43439293204173790031	15.36118771804122751234	15.67794656346204718034
	115	1	1.10859823301043447508	17.28133618279638028525	13.32625457894274134674
	116	1	1.10859823301043447508	17.28133618279638028525	15.67794656346204718034
	117	1	3.32579469903130320318	17.28133618279638028525	9.40676793807722866347
	118	1	3.32579469903130320318	17.28133618279638028525	16.46184389163514794063
	119	1	5.54299116505217170925	17.28133618279638028525	10.19066526625033120013
	120	1	5.54299116505217170925	17.28133618279638028525	12.54235725076963881008
	121	1	0.00000000000000000000	19.20148464755153483452	0.00000000000000000000
	122	1	0.00000000000000000000	19.20148464755153483452	7.05507595355792105352
	123	1	2.21719646602086895015	19.20148464755153483452	0.78389732817310242563
	124	1	2.21719646602086895015	19.20148464755153483452	3.13558931269240970252
	125	1	4.43439293204173790031	19.20148464755153483452	3.91948664086551223917
	126	1	4.43439293204173790031	19.20148464755153483452	6.27117862538481940504
	127	1	1.10859823301043447508	21.12163311230668938379	3.91948664086551223917
	128	1	1.10859823301043447508	21.12163311230668938379	6.27117862538481940504
	129	1	3.32579469903130320318	21.12163311230668938379	0.00000000000000000000
	130	1	3.32579469903130320318	21.12163311230668938379	7.05507595355792105352
	131	1	5.54299116505217170925	21.12163311230668938379	0.78389732817310242563
	132	1	5.54299116505217170925	21.12163311230668938379	3.13558931269240970252
	133	1	0.00000000000000000000	19.20148464755153483452	9.40676793807722866347
	134	1	0.00000000000000000000	19.20148464755153483452	16.46184389163514794063
	135	1	2.21719646602086895015	19.20148464755153483452	10.19066526625033120013
	136	1	2.21719646602086895015	19.20148464755153483452	12.54235725076963881008
	137	1	4.43439293204173790031	19.20148464755153483452	13.32625457894274134674
	138	1	4.43439293204173790031	19.20148464755153483452	15.67794656346204718034
	139	1	1.10859823301043447508	21.12163311230668938379	13.32625457894274134674
	140	1	1.10859823301043447508	21.12163311230668938379	15.67794656346204718034
	141	1	3.32579469903130320318	21.12163311230668938379	9.40676793807722866347
	142	1	3.32579469903130320318	21.12163311230668938379	16.46184389163514794063
	143	1	5.54299116505217170925	21.12163311230668938379	10.19066526625033120013
	144	1	5.54299116505217170925	21.12163311230668938379	12.54235725076963881008
	145	1	0.00000000000000000000	23.04178157706184038034	0.00000000000000000000
	146	1	0.00000000000000000000	23.04178157706184038034	7.05507595355792105352
	147	1	2.21719646602086895015	23.04178157706184038034	0.78389732817310242563
	148	1	2.21719646602086895015	23.04178157706184038034	3.13558931269240970252
	149	1	4.43439293204173790031	23.04178157706184038034	3.91948664086551223917
	150	1	4.43439293204173790031	23.04178157706184038034	6.27117862538481940504
	151	1	1.10859823301043447508	24.96193004181699492960	3.91948664086551223917
	152	1	1.10859823301043447508	24.96193004181699492960	6.27117862538481940504
	153	1	3.32579469903130320318	24.96193004181699492960	0.00000000000000000000
	154	1	3.32579469903130320318	24.96193004181699492960	7.05507595355792105352
	155	1	5.54299116505217170925	24.96193004181699492960	0.78389732817310242563
	156	1	5.54299116505217170925	24.96193004181699492960	3.13558931269240970252
	157	1	0.00000000000000000000	23.04178157706184038034	9.40676793807722866347
	158	1	0.00000000000000000000	23.04178157706184038034	16.46184389163514794063
	159	1	2.21719646602086895015	23.04178157706184038034	10.19066526625033120013
	160	1	2.21719646602086895015	23.04178157706184038034	12.54235725076963881008
	161	1	4.43439293204173790031	23.04178157706184038034	13.32625457894274134674
	162	1	4.43439293204173790031	23.04178157706184038034	15.67794656346204718034
	163	1	1.10859823301043447508	24.96193004181699492960	13.32625457894274134674
	164	1	1.10859823301043447508	24.96193004181699492960	15.67794656346204718034
	165	1	3.32579469903130320318	24.96193004181699492960	9.40676793807722866347
	166	1	3.32579469903130320318	24.96193004181699492960	16.46184389163514794063
	167	1	5.54299116505217170925	24.96193004181699492960	10.19066526625033120013
	168	1	5.54299116505217170925	24.96193004181699492960	12.54235725076963881008
	169	1	0.00000000000000000000	26.88207850657214947887	0.00000000000000000000
	170	1	0.00000000000000000000	26.88207850657214947887	7.05507595355792105352
	171	1	2.21719646602086895015	26.88207850657214947887	0.78389732817310242563
	172	1	2.21719646602086895015	26.88207850657214947887	3.13558931269240970252
	173	1	4.43439293204173790031	26.88207850657214947887	3.91948664086551223917
	174	1	4.43439293204173790031	26.88207850657214947887	6.27117862538481940504
	175	1	1.10859823301043447508	28.80222697132730402814	3.91948664086551223917
	176	1	1.10859823301043447508	28.80222697132730402814	6.27117862538481940504
	177	1	3.32579469903130320318	28.80222697132730402814	0.00000000000000000000
	178	1	3.32579469903130320318	28.80222697132730402814	7.05507595355792105352
	179	1	5.54299116505217170925	28.80222697132730402814	0.78389732817310242563
	180	1	5.54299116505217170925	28.80222697132730402814	3.13558931269240970252
	181	1	0.00000000000000000000	26.88207850657214947887	9.40676793807722866347
	182	1	0.00000000000000000000	26.88207850657214947887	16.46184389163514794063
	183	1	2.21719646602086895015	26.88207850657214947887	10.19066526625033120013
	184	1	2.21719646602086895015	26.88207850657214947887	12.54235725076963881008
	185	1	4.43439293204173790031	26.88207850657214947887	13.32625457894274134674
	186	1	4.43439293204173790031	26.88207850657214947887	15.67794656346204718034
	187	1	1.10859823301043447508	28.80222697132730402814	13.32625457894274134674
	188	1	1.10859823301043447508	28.80222697132730402814	15.67794656346204718034
	189	1	3.32579469903130320318	28.80222697132730402814	9.40676793807722866347
	190	1	3.32579469903130320318	28.80222697132730402814	16.46184389163514794063
	191	1	5.54299116505217170925	28.80222697132730402814	10.19066526625033120013
	192	1	5.54299116505217170925	28.80222697132730402814	12.54235725076963881008
	193	1	6.65158939806260640637	0.00000000000000000000	0.00000000000000000000
	194	1	6.65158939806260640637	0.00000000000000000000	7.05507595355792105352
	195	1	8.86878586408347580061	0.00000000000000000000	0.78389732817310242563
	196	1	8.86878586408347580061	0.00000000000000000000	3.13558931269240970252
	197	1	11.08598233010434341850	0.00000000000000000000	3.91948664086551223917
	198	1	11.08598233010434341850	0.00000000000000000000	6.27117862538481940504
	199	1	7.76018763107304110349	1.92014846475515343904	3.91948664086551223917
	200	1	7.76018763107304110349	1.92014846475515343904	6.27117862538481940504
	201	1	9.97738409709391049773	1.92014846475515343904	0.00000000000000000000
	202	1	9.97738409709391049773	1.92014846475515343904	7.05507595355792105352
	203	1	12.19458056311477811562	1.92014846475515343904	0.78389732817310242563
	204	1	12.19458056311477811562	1.92014846475515343904	3.13558931269240970252
	205	1	6.65158939806260640637	0.00000000000000000000	9.40676793807722866347
	206	1	6.65158939806260640637	0.00000000000000000000	16.46184389163514794063
	207	1	8.86878586408347580061	0.00000000000000000000	10.19066526625033120013
	208	1	8.86878586408347580061	0.00000000000000000000	12.54235725076963881008
	209	1	11.08598233010434341850	0.00000000000000000000	13.32625457894274134674
	210	1	11.08598233010434341850	0.00000000000000000000	15.67794656346204718034
	211	1	7.76018763107304110349	1.92014846475515343904	13.32625457894274134674
	212	1	7.76018763107304110349	1.92014846475515343904	15.67794656346204718034
	213	1	9.97738409709391049773	1.92014846475515343904	9.40676793807722866347
	214	1	9.97738409709391049773	1.92014846475515343904	16.46184389163514794063
	215	1	12.19458056311477811562	1.92014846475515343904	10.19066526625033120013
	216	1	12.19458056311477811562	1.92014846475515343904	12.54235725076963881008
	217	1	6.65158939806260640637	3.84029692951030687809	0.00000000000000000000
	218	1	6.65158939806260640637	3.84029692951030687809	7.05507595355792105352
	219	1	8.86878586408347580061	3.84029692951030687809	0.78389732817310242563
	220	1	8.86878586408347580061	3.84029692951030687809	3.13558931269240970252
	221	1	11.08598233010434341850	3.84029692951030687809	3.91948664086551223917
	222	1	11.08598233010434341850	3.84029692951030687809	6.27117862538481940504
	223	1	7.76018763107304110349	5.76044539426546009508	3.91948664086551223917
	224	1	7.76018763107304110349	5.76044539426546009508	6.27117862538481940504
	225	1	9.97738409709391049773	5.76044539426546009508	0.00000000000000000000
	226	1	9.97738409709391049773	5.76044539426546009508	7.05507595355792105352
	227	1	12.19458056311477811562	5.76044539426546009508	0.78389732817310242563
	228	1	12.19458056311477811562	5.76044539426546009508	3.13558931269240970252
	229	1	6.65158939806260640637	3.84029692951030687809	9.40676793807722866347
	230	1	6.65158939806260640637	3.84029692951030687809	16.46184389163514794063
	231	1	8.86878586408347580061	3.84029692951030687809	10.19066526625033120013
	232	1	8.86878586408347580061	3.84029692951030687809	12.54235725076963881008
	233	1	11.08598233010434341850	3.84029692951030687809	13.32625457894274134674
	234	1	11.08598233010434341850	3.84029692951030687809	15.67794656346204718034
	235	1	7.76018763107304110349	5.76044539426546009508	13.32625457894274134674
	236	1	7.76018763107304110349	5.76044539426546009508	15.67794656346204718034
	237	1	9.97738409709391049773	5.76044539426546009508	9.40676793807722866347
	238	1	9.97738409709391049773	5.76044539426546009508	16.46184389163514794063
	239	1	12.19458056311477811562	5.76044539426546009508	10.19066526625033120013
	240	1	12.19458056311477811562	5.76044539426546009508	12.54235725076963881008
	241	1	6.65158939806260640637	7.68059385902061375617	0.00000000000000000000
	242	1	6.65158939806260640637	7.68059385902061375617	7.05507595355792105352
	243	1	8.86878586408347580061	7.68059385902061375617	0.78389732817310242563
	244	1	8.86878586408347580061	7.68059385902061375617	3.13558931269240970252
	245	1	11.08598233010434341850	7.68059385902061375617	3.91948664086551223917
	246	1	11.08598233010434341850	7.68059385902061375617	6.27117862538481940504
	247	1	7.76018763107304110349	9.60074232377576741726	3.91948664086551223917
	248	1	7.76018763107304110349	9.60074232377576741726	6.27117862538481940504
	249	1	9.97738409709391049773	9.60074232377576741726	0.00000000000000000000
	250	1	9.97738409709391049773	9.60074232377576741726	7.05507595355792105352
	251	1	12.19458056311477811562	9.60074232377576741726	0.78389732817310242563
	252	1	12.19458056311477811562	9.60074232377576741726	3.13558931269240970252
	253	1	6.65158939806260640637	7.68059385902061375617	9.40676793807722866347
	254	1	6.65158939806260640637	7.68059385902061375617	16.46184389163514794063
	255	1	8.86878586408347580061	7.68059385902061375617	10.19066526625033120013
	256	1	8.86878586408347580061	7.68059385902061375617	12.54235725076963881008
	257	1	11.08598233010434341850	7.68059385902061375617	13.32625457894274134674
	258	1	11.08598233010434341850	7.68059385902061375617	15.67794656346204718034
	259	1	7.76018763107304110349	9.60074232377576741726	13.32625457894274134674
	260	1	7.76018763107304110349	9.60074232377576741726	15.67794656346204718034
	261	1	9.97738409709391049773	9.60074232377576741726	9.40676793807722866347
	262	1	9.97738409709391049773	9.60074232377576741726	16.46184389163514794063
	263	1	12.19458056311477811562	9.60074232377576741726	10.19066526625033120013
	264	1	12.19458056311477811562	9.60074232377576741726	12.54235725076963881008
	265	1	6.65158939806260640637	11.52089078853092019017	0.00000000000000000000
	266	1	6.65158939806260640637	11.52089078853092019017	7.05507595355792105352
	267	1	8.86878586408347580061	11.52089078853092019017	0.78389732817310242563
	268	1	8.86878586408347580061	11.52089078853092019017	3.13558931269240970252
	269	1	11.08598233010434341850	11.52089078853092019017	3.91948664086551223917
	270	1	11.08598233010434341850	11.52089078853092019017	6.27117862538481940504
	271	1	7.76018763107304110349	13.44103925328607296308	3.91948664086551223917
	272	1	7.76018763107304110349	13.44103925328607296308	6.27117862538481940504
	273	1	9.97738409709391049773	13.44103925328607296308	0.00000000000000000000
	274	1	9.97738409709391049773	13.44103925328607296308	7.05507595355792105352
	275	1	12.19458056311477811562	13.44103925328607296308	0.78389732817310242563
	276	1	12.19458056311477811562	13.44103925328607296308	3.13558931269240970252
	277	1	6.65158939806260640637	11.52089078853092019017	9.40676793807722866347
	278	1	6.65158939806260640637	11.52089078853092019017	16.46184389163514794063
	279	1	8.86878586408347580061	11.52089078853092019017	10.19066526625033120013
	280	1	8.86878586408347580061	11.52089078853092019017	12.54235725076963881008
	281	1	11.08598233010434341850	11.52089078853092019017	13.32625457894274134674
	282	1	11.08598233010434341850	11.52089078853092019017	15.67794656346204718034
	283	1	7.76018763107304110349	13.44103925328607296308	13.32625457894274134674
	284	1	7.76018763107304110349	13.44103925328607296308	15.67794656346204718034
	285	1	9.97738409709391049773	13.44103925328607296308	9.40676793807722866347
	286	1	9.97738409709391049773	13.44103925328607296308	16.46184389163514794063
	287	1	12.19458056311477811562	13.44103925328607296308	10.19066526625033120013
	288	1	12.19458056311477811562	13.44103925328607296308	12.54235725076963881008
	289	1	6.65158939806260640637	15.36118771804122751234	0.00000000000000000000
	290	1	6.65158939806260640637	15.36118771804122751234	7.05507595355792105352
	291	1	8.86878586408347580061	15.36118771804122751234	0.78389732817310242563
	292	1	8.86878586408347580061	15.36118771804122751234	3.13558931269240970252
	293	1	11.08598233010434341850	15.36118771804122751234	3.91948664086551223917
	294	1	11.08598233010434341850	15.36118771804122751234	6.27117862538481940504
	295	1	7.76018763107304110349	17.28133618279638028525	3.91948664086551223917
	296	1	7.76018763107304110349	17.28133618279638028525	6.27117862538481940504
	297	1	9.97738409709391049773	17.28133618279638028525	0.00000000000000000000
	298	1	9.97738409709391049773	17.28133618279638028525	7.05507595355792105352
	299	1	12.19458056311477811562	17.28133618279638028525	0.78389732817310242563
	300	1	12.19458056311477811562	17.28133618279638028525	3.13558931269240970252
	301	1	6.65158939806260640637	15.36118771804122751234	9.40676793807722866347
	302	1	6.65158939806260640637	15.36118771804122751234	16.46184389163514794063
	303	1	8.86878586408347580061	15.36118771804122751234	10.19066526625033120013
	304	1	8.86878586408347580061	15.36118771804122751234	12.54235725076963881008
	305	1	11.08598233010434341850	15.36118771804122751234	13.32625457894274134674
	306	1	11.08598233010434341850	15.36118771804122751234	15.67794656346204718034
	307	1	7.76018763107304110349	17.28133618279638028525	13.32625457894274134674
	308	1	7.76018763107304110349	17.28133618279638028525	15.67794656346204718034
	309	1	9.97738409709391049773	17.28133618279638028525	9.40676793807722866347
	310	1	9.97738409709391049773	17.28133618279638028525	16.46184389163514794063
	311	1	12.19458056311477811562	17.28133618279638028525	10.19066526625033120013
	312	1	12.19458056311477811562	17.28133618279638028525	12.54235725076963881008
	313	1	6.65158939806260640637	19.20148464755153483452	0.00000000000000000000
	314	1	6.65158939806260640637	19.20148464755153483452	7.05507595355792105352
	315	1	8.86878586408347580061	19.20148464755153483452	0.78389732817310242563
	316	1	8.86878586408347580061	19.20148464755153483452	3.13558931269240970252
	317	1	11.08598233010434341850	19.20148464755153483452	3.91948664086551223917
	318	1	11.08598233010434341850	19.20148464755153483452	6.27117862538481940504
	319	1	7.76018763107304110349	21.12163311230668938379	3.91948664086551223917
	320	1	7.76018763107304110349	21.12163311230668938379	6.27117862538481940504
	321	1	9.97738409709391049773	21.12163311230668938379	0.00000000000000000000
	322	1	9.97738409709391049773	21.12163311230668938379	7.05507595355792105352
	323	1	12.19458056311477811562	21.12163311230668938379	0.78389732817310242563
	324	1	12.19458056311477811562	21.12163311230668938379	3.13558931269240970252
	325	1	6.65158939806260640637	19.20148464755153483452	9.40676793807722866347
	326	1	6.65158939806260640637	19.20148464755153483452	16.46184389163514794063
	327	1	8.86878586408347580061	19.20148464755153483452	10.19066526625033120013
	328	1	8.86878586408347580061	19.20148464755153483452	12.54235725076963881008
	329	1	11.08598233010434341850	19.20148464755153483452	13.32625457894274134674
	330	1	11.08598233010434341850	19.20148464755153483452	15.67794656346204718034
	331	1	7.76018763107304110349	21.12163311230668938379	13.32625457894274134674
	332	1	7.76018763107304110349	21.12163311230668938379	15.67794656346204718034
	333	1	9.97738409709391049773	21.12163311230668938379	9.40676793807722866347
	334	1	9.97738409709391049773	21.12163311230668938379	16.46184389163514794063
	335	1	12.19458056311477811562	21.12163311230668938379	10.19066526625033120013
	336	1	12.19458056311477811562	21.12163311230668938379	12.54235725076963881008
	337	1	6.65158939806260640637	23.04178157706184038034	0.00000000000000000000
	338	1	6.65158939806260640637	23.04178157706184038034	7.05507595355792105352
	339	1	8.86878586408347580061	23.04178157706184038034	0.78389732817310242563
	340	1	8.86878586408347580061	23.04178157706184038034	3.13558931269240970252
	341	1	11.08598233010434341850	23.04178157706184038034	3.91948664086551223917
	342	1	11.08598233010434341850	23.04178157706184038034	6.27117862538481940504
	343	1	7.76018763107304110349	24.96193004181699492960	3.91948664086551223917
	344	1	7.76018763107304110349	24.96193004181699492960	6.27117862538481940504
	345	1	9.97738409709391049773	24.96193004181699492960	0.00000000000000000000
	346	1	9.97738409709391049773	24.96193004181699492960	7.05507595355792105352
	347	1	12.19458056311477811562	24.96193004181699492960	0.78389732817310242563
	348	1	12.19458056311477811562	24.96193004181699492960	3.13558931269240970252
	349	1	6.65158939806260640637	23.04178157706184038034	9.40676793807722866347
	350	1	6.65158939806260640637	23.04178157706184038034	16.46184389163514794063
	351	1	8.86878586408347580061	23.04178157706184038034	10.19066526625033120013
	352	1	8.86878586408347580061	23.04178157706184038034	12.54235725076963881008
	353	1	11.08598233010434341850	23.04178157706184038034	13.32625457894274134674
	354	1	11.08598233010434341850	23.04178157706184038034	15.67794656346204718034
	355	1	7.76018763107304110349	24.96193004181699492960	13.32625457894274134674
	356	1	7.76018763107304110349	24.96193004181699492960	15.67794656346204718034
	357	1	9.97738409709391049773	24.96193004181699492960	9.40676793807722866347
	358	1	9.97738409709391049773	24.96193004181699492960	16.46184389163514794063
	359	1	12.19458056311477811562	24.96193004181699492960	10.19066526625033120013
	360	1	12.19458056311477811562	24.96193004181699492960	12.54235725076963881008
	361	1	6.65158939806260640637	26.88207850657214947887	0.00000000000000000000
	362	1	6.65158939806260640637	26.88207850657214947887	7.05507595355792105352
	363	1	8.86878586408347580061	26.88207850657214947887	0.78389732817310242563
	364	1	8.86878586408347580061	26.88207850657214947887	3.13558931269240970252
	365	1	11.08598233010434341850	26.88207850657214947887	3.91948664086551223917
	366	1	11.08598233010434341850	26.88207850657214947887	6.27117862538481940504
	367	1	7.76018763107304110349	28.80222697132730402814	3.91948664086551223917
	368	1	7.76018763107304110349	28.80222697132730402814	6.27117862538481940504
	369	1	9.97738409709391049773	28.80222697132730402814	0.00000000000000000000
	370	1	9.97738409709391049773	28.80222697132730402814	7.05507595355792105352
	371	1	12.19458056311477811562	28.80222697132730402814	0.78389732817310242563
	372	1	12.19458056311477811562	28.80222697132730402814	3.13558931269240970252
	373	1	6.65158939806260640637	26.88207850657214947887	9.40676793807722866347
	374	1	6.65158939806260640637	26.88207850657214947887	16.46184389163514794063
	375	1	8.86878586408347580061	26.88207850657214947887	10.19066526625033120013
	376	1	8.86878586408347580061	26.88207850657214947887	12.54235725076963881008
	377	1	11.08598233010434341850	26.88207850657214947887	13.32625457894274134674
	378	1	11.08598233010434341850	26.88207850657214947887	15.67794656346204718034
	379	1	7.76018763107304110349	28.80222697132730402814	13.32625457894274134674
	380	1	7.76018763107304110349	28.80222697132730402814	15.67794656346204718034
	381	1	9.97738409709391049773	28.80222697132730402814	9.40676793807722866347
	382	1	9.97738409709391049773	28.80222697132730402814	16.46184389163514794063
	383	1	12.19458056311477811562	28.80222697132730402814	10.19066526625033120013
	384	1	12.19458056311477811562	28.80222697132730402814	12.54235725076963881008
