ITEM: TIMESTEP
0
ITEM: NUMBER OF ATOMS
384
ITEM: BOX BOUNDS pp ss pp
0 13.3032
-0.00307224 28.8053
0 18.8135
ITEM: ATOMS id type x y z fx fy fz 
1 1 0 0 0 -0.159768 -0.0949983 0.112973 
3 1 2.2172 0 0.783897 0.159768 -0.0949983 -0.112973 
4 1 2.2172 0 3.13559 -0.159768 -0.0949983 0.112973 
9 1 3.32579 1.92015 0 0.0833252 0.108684 -0.0589198 
11 1 5.54299 1.92015 0.783897 -0.0833252 0.108684 0.0589198 
12 1 5.54299 1.92015 3.13559 0.0833252 0.108684 -0.0589198 
193 1 6.65159 0 0 -0.159768 -0.0949983 0.112973 
195 1 8.86879 0 0.783897 0.159768 -0.0949983 -0.112973 
196 1 8.86879 0 3.13559 -0.159768 -0.0949983 0.112973 
201 1 9.97738 1.92015 0 0.0833252 0.108684 -0.0589198 
203 1 12.1946 1.92015 0.783897 -0.0833252 0.108684 0.0589198 
204 1 12.1946 1.92015 3.13559 0.0833252 0.108684 -0.0589198 
25 1 0 3.8403 0 -1.39135e-15 -2.92114e-16 -2.19824e-14 
27 1 2.2172 3.8403 0.783897 -5.06366e-15 -6.45491e-15 -5.46091e-15 
28 1 2.2172 3.8403 3.13559 5.1209e-15 -8.51418e-15 7.29972e-15 
33 1 3.32579 5.76045 0 -3.88919e-15 9.2817e-15 -2.89213e-14 
35 1 5.54299 5.76045 0.783897 9.83241e-15 3.72966e-15 -4.40967e-15 
36 1 5.54299 5.76045 3.13559 1.55969e-14 5.26836e-15 2.2482e-15 
217 1 6.65159 3.8403 0 3.37908e-15 -7.28455e-16 -2.22704e-14 
219 1 8.86879 3.8403 0.783897 -3.10342e-15 -2.05738e-15 -8.64933e-15 
220 1 8.86879 3.8403 3.13559 -1.91722e-14 -1.62023e-15 2.17881e-15 
225 1 9.97738 5.76045 0 -1.84774e-14 2.79496e-15 -2.99274e-14 
227 1 12.1946 5.76045 0.783897 1.98244e-14 2.46524e-15 -3.18495e-15 
228 1 12.1946 5.76045 3.13559 2.85189e-15 2.5431e-15 9.78037e-15 
49 1 0 7.68059 0 -3.79203e-15 -2.63678e-16 -2.03899e-14 
51 1 2.2172 7.68059 0.783897 2.07126e-15 2.08167e-16 -8.6528e-15 
52 1 2.2172 7.68059 3.13559 4.64906e-16 -1.94289e-16 8.49321e-15 
57 1 3.32579 9.60074 0 -2.20323e-15 -1.35126e-14 -3.00732e-14 
59 1 5.54299 9.60074 0.783897 5.10356e-15 -8.87485e-15 -3.68455e-15 
60 1 5.54299 9.60074 3.13559 1.593e-14 -6.0351e-15 4.15293e-15 
241 1 6.65159 7.68059 0 -6.06162e-16 -1.26288e-15 -1.97203e-14 
243 1 8.86879 7.68059 0.783897 -2.72352e-16 3.05311e-16 -1.03147e-14 
244 1 8.86879 7.68059 3.13559 -2.13024e-14 2.01228e-16 4.56579e-15 
249 1 9.97738 9.60074 0 -1.54363e-14 -9.46816e-15 -3.31783e-14 
251 1 12.1946 9.60074 0.783897 1.61884e-14 -9.43517e-15 3.26128e-16 
252 1 12.1946 9.60074 3.13559 6.74287e-15 -8.70484e-15 7.01175e-15 
73 1 0 11.5209 0 8.20553e-15 1.52656e-16 -2.84182e-14 
75 1 2.2172 11.5209 0.783897 -1.44676e-14 -3.95517e-16 2.00534e-15 
76 1 2.2172 11.5209 3.13559 1.1921e-14 -2.22045e-16 -8.25728e-16 
81 1 3.32579 13.441 0 -3.28501e-15 1.78397e-14 -2.80193e-14 
83 1 5.54299 13.441 0.783897 9.11077e-15 1.76786e-14 -6.25888e-15 
84 1 5.54299 13.441 3.13559 7.09502e-15 1.64608e-14 7.68136e-15 
265 1 6.65159 11.5209 0 1.24287e-14 -1.94289e-16 -2.78007e-14 
267 1 8.86879 11.5209 0.783897 -1.29185e-14 -6.93889e-18 -2.17534e-15 
268 1 8.86879 11.5209 3.13559 -9.78384e-15 -1.04083e-16 -3.32026e-15 
273 1 9.97738 13.441 0 -1.98029e-14 1.80837e-14 -2.89456e-14 
275 1 12.1946 13.441 0.783897 2.06953e-14 1.75814e-14 -3.63598e-15 
276 1 12.1946 13.441 3.13559 -4.83988e-16 1.78278e-14 1.12306e-14 
97 1 0 15.3612 0 -2.45422e-15 -1.75899e-14 -2.11255e-14 
99 1 2.2172 15.3612 0.783897 -4.75835e-15 -1.82892e-14 -5.12437e-15 
100 1 2.2172 15.3612 3.13559 8.18789e-16 -2.34811e-14 8.28504e-15 
105 1 3.32579 17.2813 0 -1.1062e-15 1.69932e-14 -2.92925e-14 
107 1 5.54299 17.2813 0.783897 7.71952e-15 1.79214e-14 -5.33254e-15 
108 1 5.54299 17.2813 3.13559 8.5279e-15 1.52534e-14 6.67869e-15 
289 1 6.65159 15.3612 0 2.2181e-15 -1.83541e-14 -2.06848e-14 
291 1 8.86879 15.3612 0.783897 -2.31412e-15 -1.87472e-14 -9.30159e-15 
292 1 8.86879 15.3612 3.13559 -1.90958e-14 -1.87784e-14 4.17028e-15 
297 1 9.97738 17.2813 0 -1.85886e-14 1.84654e-14 -2.98025e-14 
299 1 12.1946 17.2813 0.783897 2.03171e-14 1.76786e-14 -3.47639e-15 
300 1 12.1946 17.2813 3.13559 5.9501e-16 1.78902e-14 1.0502e-14 
121 1 0 19.2015 0 -1.43114e-14 6.38378e-16 -1.22437e-14 
123 1 2.2172 19.2015 0.783897 5.28917e-15 -3.53884e-16 -1.13416e-14 
124 1 2.2172 19.2015 3.13559 -1.27676e-14 -9.71445e-17 1.72883e-14 
129 1 3.32579 21.1216 0 4.78622e-15 -3.1016e-14 -3.52184e-14 
131 1 5.54299 21.1216 0.783897 -2.74086e-16 -3.50813e-14 9.12465e-16 
132 1 5.54299 21.1216 3.13559 1.77428e-14 -3.05103e-14 1.60635e-15 
313 1 6.65159 19.2015 0 -8.86529e-15 -8.32667e-17 -1.26947e-14 
315 1 8.86879 19.2015 0.783897 9.2773e-15 1.38778e-17 -1.73056e-14 
316 1 8.86879 19.2015 3.13559 -3.15269e-14 -6.93889e-17 1.14457e-14 
321 1 9.97738 21.1216 0 -9.25528e-15 -3.57089e-14 -3.75359e-14 
323 1 12.1946 21.1216 0.783897 1.0849e-14 -3.63945e-14 4.87457e-15 
324 1 12.1946 21.1216 3.13559 1.20771e-14 -3.53884e-14 2.2482e-15 
145 1 0 23.0418 0 7.57003e-15 3.50137e-14 -2.87444e-14 
147 1 2.2172 23.0418 0.783897 -1.27155e-14 3.13517e-14 1.39125e-15 
148 1 2.2172 23.0418 3.13559 8.59035e-15 3.58397e-14 3.16414e-15 
153 1 3.32579 24.9619 0 -1.26201e-14 -5.6205e-16 -2.12608e-14 
155 1 5.54299 24.9619 0.783897 2.03691e-14 -7.14706e-16 -1.30729e-14 
156 1 5.54299 24.9619 3.13559 -1.70003e-16 -7.49401e-16 1.35482e-14 
337 1 6.65159 23.0418 0 1.27184e-14 3.61142e-14 -2.7818e-14 
339 1 8.86879 23.0418 0.783897 -1.2719e-14 3.60059e-14 -2.10595e-15 
340 1 8.86879 23.0418 3.13559 -9.5271e-15 3.64708e-14 -3.71231e-15 
345 1 9.97738 24.9619 0 -3.13903e-14 -6.38378e-16 -2.2319e-14 
347 1 12.1946 24.9619 0.783897 3.15616e-14 -1.59595e-16 -9.37445e-15 
348 1 12.1946 24.9619 3.13559 -9.61731e-15 -2.70617e-16 1.73195e-14 
169 1 0 26.8821 0 0.0833252 -0.108684 -0.0589198 
171 1 2.2172 26.8821 0.783897 -0.0833252 -0.108684 0.0589198 
172 1 2.2172 26.8821 3.13559 0.0833252 -0.108684 -0.0589198 
177 1 3.32579 28.8022 0 -0.159768 0.0949983 0.112973 
179 1 5.54299 28.8022 0.783897 0.159768 0.0949983 -0.112973 
180 1 5.54299 28.8022 3.13559 -0.159768 0.0949983 0.112973 
361 1 6.65159 26.8821 0 0.0833252 -0.108684 -0.0589198 
363 1 8.86879 26.8821 0.783897 -0.0833252 -0.108684 0.0589198 
364 1 8.86879 26.8821 3.13559 0.0833252 -0.108684 -0.0589198 
369 1 9.97738 28.8022 0 -0.159768 0.0949983 0.112973 
371 1 12.1946 28.8022 0.783897 0.159768 0.0949983 -0.112973 
372 1 12.1946 28.8022 3.13559 -0.159768 0.0949983 0.112973 
2 1 0 0 7.05508 0.159768 -0.0949983 -0.112973 
7 1 1.1086 1.92015 3.91949 -0.0833252 0.108684 0.0589198 
8 1 1.1086 1.92015 6.27118 0.0833252 0.108684 -0.0589198 
10 1 3.32579 1.92015 7.05508 -0.0833252 0.108684 0.0589198 
5 1 4.43439 0 3.91949 0.159768 -0.0949983 -0.112973 
6 1 4.43439 0 6.27118 -0.159768 -0.0949983 0.112973 
194 1 6.65159 0 7.05508 0.159768 -0.0949983 -0.112973 
199 1 7.76019 1.92015 3.91949 -0.0833252 0.108684 0.0589198 
200 1 7.76019 1.92015 6.27118 0.0833252 0.108684 -0.0589198 
197 1 11.086 0 3.91949 0.159768 -0.0949983 -0.112973 
198 1 11.086 0 6.27118 -0.159768 -0.0949983 0.112973 
202 1 9.97738 1.92015 7.05508 -0.0833252 0.108684 0.0589198 
26 1 0 3.8403 7.05508 -1.02071e-14 -8.89271e-16 6.43582e-15 
31 1 1.1086 5.76045 3.91949 -8.5279e-15 8.06422e-15 -4.65253e-15 
32 1 1.1086 5.76045 6.27118 -8.43076e-15 6.05245e-15 -3.41047e-15 
34 1 3.32579 5.76045 7.05508 9.89592e-15 7.74864e-15 9.7318e-15 
29 1 4.43439 3.8403 3.91949 -1.16644e-14 -4.28441e-15 -7.38992e-16 
30 1 4.43439 3.8403 6.27118 -9.56527e-15 -6.6773e-15 -2.7478e-15 
218 1 6.65159 3.8403 7.05508 9.42765e-15 -6.90104e-15 1.05124e-14 
223 1 7.76019 5.76045 3.91949 -4.05626e-15 3.17406e-15 -1.16469e-14 
224 1 7.76019 5.76045 6.27118 5.02376e-15 7.62237e-15 4.50681e-15 
221 1 11.086 3.8403 3.91949 1.92412e-14 -1.337e-15 -1.249e-16 
222 1 11.086 3.8403 6.27118 2.13371e-14 -2.31167e-15 -5.84949e-15 
226 1 9.97738 5.76045 7.05508 -1.97941e-14 2.49541e-15 1.41727e-14 
50 1 0 7.68059 7.05508 -2.74433e-15 -1.66533e-16 1.39125e-15 
55 1 1.1086 9.60074 3.91949 -9.86711e-15 -1.08375e-14 -4.87457e-15 
56 1 1.1086 9.60074 6.27118 -6.72899e-15 -9.61557e-15 -4.41314e-15 
58 1 3.32579 9.60074 7.05508 8.09347e-15 -1.2533e-14 1.21812e-14 
53 1 4.43439 7.68059 3.91949 -8.2594e-15 -4.16334e-17 -3.63251e-15 
54 1 4.43439 7.68059 6.27118 -1.61433e-14 -1.80411e-16 9.50628e-16 
242 1 6.65159 7.68059 7.05508 1.57711e-14 -9.71445e-17 7.52523e-15 
247 1 7.76019 9.60074 3.91949 -7.3803e-15 -9.09628e-15 -8.80893e-15 
248 1 7.76019 9.60074 6.27118 8.22606e-15 -1.24154e-14 2.84842e-15 
245 1 11.086 7.68059 3.91949 2.04946e-14 -9.71445e-17 -2.17881e-15 
246 1 11.086 7.68059 6.27118 1.74409e-14 1.80411e-16 -3.81292e-15 
250 1 9.97738 9.60074 7.05508 -2.4189e-14 -9.26206e-15 1.78468e-14 
74 1 0 11.5209 7.05508 -1.34233e-14 -1.66533e-16 1.09322e-14 
79 1 1.1086 13.441 3.91949 -2.67841e-15 2.25951e-14 -8.39606e-15 
80 1 1.1086 13.441 6.27118 -1.00284e-14 1.56611e-14 -2.03657e-15 
82 1 3.32579 13.441 7.05508 1.06666e-14 1.73871e-14 9.82894e-15 
77 1 4.43439 11.5209 3.91949 -1.38072e-14 3.88578e-16 8.36137e-16 
78 1 4.43439 11.5209 6.27118 -1.09981e-15 -1.94289e-16 -9.12465e-15 
266 1 6.65159 11.5209 7.05508 8.68268e-16 -2.77556e-16 1.77774e-14 
271 1 7.76019 13.441 3.91949 -1.45174e-17 1.85245e-14 -1.17406e-14 
272 1 7.76019 13.441 6.27118 4.51375e-15 1.69222e-14 4.01068e-15 
269 1 11.086 11.5209 3.91949 9.90128e-15 7.91034e-16 5.17641e-15 
270 1 11.086 11.5209 6.27118 2.91087e-14 -5.27356e-16 -1.31249e-14 
274 1 9.97738 13.441 7.05508 -1.69266e-14 2.06229e-14 1.21049e-14 
98 1 0 15.3612 7.05508 -5.3603e-15 -1.63261e-14 3.6568e-15 
103 1 1.1086 17.2813 3.91949 -4.59008e-15 2.26645e-14 -7.0291e-15 
104 1 1.1086 17.2813 6.27118 -8.38045e-15 1.59248e-14 -3.35149e-15 
106 1 3.32579 17.2813 7.05508 8.98394e-15 1.69014e-14 1.10328e-14 
101 1 4.43439 15.3612 3.91949 -4.67148e-15 -1.63428e-14 -5.6205e-15 
102 1 4.43439 15.3612 6.27118 -8.71525e-15 -1.76196e-14 -2.67147e-15 
290 1 6.65159 15.3612 7.05508 8.04652e-15 -1.73183e-14 1.04153e-14 
295 1 7.76019 17.2813 3.91949 -1.19066e-15 1.81498e-14 -1.07275e-14 
296 1 7.76019 17.2813 6.27118 6.04725e-15 1.70541e-14 2.98025e-15 
293 1 11.086 15.3612 3.91949 1.93232e-14 -1.82349e-14 -3.55618e-15 
294 1 11.086 15.3612 6.27118 1.75138e-14 -2.07525e-14 -3.97599e-15 
298 1 9.97738 17.2813 7.05508 -1.84115e-14 2.04425e-14 1.29619e-14 
122 1 0 19.2015 7.05508 3.74353e-15 -1.1588e-15 -2.62637e-15 
127 1 1.1086 21.1216 3.91949 -1.30937e-14 -3.53692e-14 -2.36269e-15 
128 1 1.1086 21.1216 6.27118 -1.00267e-15 -2.95909e-14 -1.0103e-14 
130 1 3.32579 21.1216 7.05508 3.27653e-15 -2.95614e-14 1.65631e-14 
125 1 4.43439 19.2015 3.91949 4.80864e-15 -1.31839e-16 -1.23235e-14 
126 1 4.43439 19.2015 6.27118 -1.9814e-14 -4.16334e-17 4.64559e-15 
314 1 6.65159 19.2015 7.05508 1.96364e-14 5.55112e-17 3.48679e-15 
319 1 7.76019 21.1216 3.91949 -1.19016e-14 -3.56311e-14 -3.51455e-15 
320 1 7.76019 21.1216 6.27118 1.35673e-14 -3.04323e-14 -1.91513e-15 
317 1 11.086 19.2015 3.91949 3.17859e-14 -1.52656e-16 -1.07726e-14 
318 1 11.086 19.2015 6.27118 4.996e-15 5.55112e-16 5.08968e-15 
322 1 9.97738 21.1216 7.05508 -2.50013e-14 -3.27213e-14 1.7264e-14 
146 1 0 23.0418 7.05508 -1.39264e-14 3.01113e-14 1.13486e-14 
151 1 1.1086 24.9619 3.91949 8.75688e-15 -9.02056e-16 -1.72778e-14 
152 1 1.1086 24.9619 6.27118 -1.74461e-14 -7.63278e-17 3.36536e-15 
154 1 3.32579 24.9619 7.05508 1.94848e-14 -4.57967e-16 3.72619e-15 
149 1 4.43439 23.0418 3.91949 -1.42678e-14 3.07202e-14 9.71445e-16 
150 1 4.43439 23.0418 6.27118 -1.60982e-15 2.9754e-14 -8.05259e-15 
338 1 6.65159 23.0418 7.05508 6.5388e-16 3.02936e-14 1.6185e-14 
343 1 7.76019 24.9619 3.91949 9.59331e-15 -9.22873e-16 -1.91028e-14 
344 1 7.76019 24.9619 6.27118 -4.31252e-15 -4.44089e-16 1.00926e-14 
341 1 11.086 23.0418 3.91949 9.31934e-15 3.53631e-14 4.57967e-15 
342 1 11.086 23.0418 6.27118 2.30371e-14 3.42575e-14 -8.44463e-15 
346 1 9.97738 24.9619 7.05508 -4.22698e-15 -1.33227e-15 2.17187e-15 
170 1 0 26.8821 7.05508 -0.0833252 -0.108684 0.0589198 
175 1 1.1086 28.8022 3.91949 0.159768 0.0949983 -0.112973 
176 1 1.1086 28.8022 6.27118 -0.159768 0.0949983 0.112973 
178 1 3.32579 28.8022 7.05508 0.159768 0.0949983 -0.112973 
173 1 4.43439 26.8821 3.91949 -0.0833252 -0.108684 0.0589198 
174 1 4.43439 26.8821 6.27118 0.0833252 -0.108684 -0.0589198 
362 1 6.65159 26.8821 7.05508 -0.0833252 -0.108684 0.0589198 
367 1 7.76019 28.8022 3.91949 0.159768 0.0949983 -0.112973 
368 1 7.76019 28.8022 6.27118 -0.159768 0.0949983 0.112973 
365 1 11.086 26.8821 3.91949 -0.0833252 -0.108684 0.0589198 
366 1 11.086 26.8821 6.27118 0.0833252 -0.108684 -0.0589198 
370 1 9.97738 28.8022 7.05508 0.159768 0.0949983 -0.112973 
13 1 0 0 9.40677 -0.159768 -0.0949983 0.112973 
15 1 2.2172 0 10.1907 0.159768 -0.0949983 -0.112973 
21 1 3.32579 1.92015 9.40677 0.0833252 0.108684 -0.0589198 
23 1 5.54299 1.92015 10.1907 -0.0833252 0.108684 0.0589198 
205 1 6.65159 0 9.40677 -0.159768 -0.0949983 0.112973 
207 1 8.86879 0 10.1907 0.159768 -0.0949983 -0.112973 
213 1 9.97738 1.92015 9.40677 0.0833252 0.108684 -0.0589198 
215 1 12.1946 1.92015 10.1907 -0.0833252 0.108684 0.0589198 
37 1 0 3.8403 9.40677 -2.46331e-16 -1.47145e-15 4.96131e-16 
39 1 2.2172 3.8403 10.1907 -4.39388e-15 -6.75154e-15 2.668e-15 
45 1 3.32579 5.76045 9.40677 -3.48853e-15 7.9086e-15 -5.22152e-15 
47 1 5.54299 5.76045 10.1907 7.57608e-15 3.3764e-15 3.2474e-15 
229 1 6.65159 3.8403 9.40677 3.54577e-15 -1.68962e-15 -1.45717e-16 
231 1 8.86879 3.8403 10.1907 -3.01692e-15 -1.97065e-15 2.98372e-16 
237 1 9.97738 5.76045 9.40677 -1.83967e-14 3.83374e-15 -7.40033e-15 
239 1 12.1946 5.76045 10.1907 1.91409e-14 3.1225e-15 5.01682e-15 
61 1 0 7.68059 9.40677 -3.89272e-15 4.57967e-16 3.06352e-15 
63 1 2.2172 7.68059 10.1907 1.9535e-15 2.08167e-16 -8.53484e-16 
69 1 3.32579 9.60074 9.40677 -1.44329e-15 -1.29566e-14 -7.01175e-15 
71 1 5.54299 9.60074 10.1907 3.94003e-15 -9.1386e-15 4.64212e-15 
253 1 6.65159 7.68059 9.40677 1.18655e-15 1.38778e-17 1.82493e-15 
255 1 8.86879 7.68059 10.1907 -4.73108e-16 3.46945e-16 -2.96985e-15 
261 1 9.97738 9.60074 9.40677 -1.56715e-14 -9.07781e-15 -1.05055e-14 
263 1 12.1946 9.60074 10.1907 1.61156e-14 -9.40914e-15 8.07687e-15 
85 1 0 11.5209 9.40677 8.47933e-15 -5.68989e-16 -5.5303e-15 
87 1 2.2172 11.5209 10.1907 -1.4658e-14 -3.60822e-16 1.02661e-14 
93 1 3.32579 13.441 9.40677 -2.95076e-15 1.77497e-14 -4.86416e-15 
95 1 5.54299 13.441 10.1907 8.97583e-15 1.83979e-14 1.31839e-15 
277 1 6.65159 11.5209 9.40677 1.1699e-14 6.245e-17 -5.73847e-15 
279 1 8.86879 11.5209 10.1907 -1.09901e-14 -7.14706e-16 4.75661e-15 
285 1 9.97738 13.441 9.40677 -2.03396e-14 1.8173e-14 -5.66214e-15 
287 1 12.1946 13.441 10.1907 2.14932e-14 1.92485e-14 3.72966e-15 
109 1 0 15.3612 9.40677 -3.25434e-15 -1.94249e-14 2.79984e-15 
111 1 2.2172 15.3612 10.1907 -4.79405e-15 -1.86588e-14 3.59782e-15 
117 1 3.32579 17.2813 9.40677 -1.04257e-15 1.83603e-14 -6.04031e-15 
119 1 5.54299 17.2813 10.1907 8.05643e-15 1.76346e-14 2.02269e-15 
301 1 6.65159 15.3612 9.40677 -5.34295e-16 -1.82163e-14 1.50227e-15 
303 1 8.86879 15.3612 10.1907 3.88238e-16 -1.8513e-14 -2.45984e-15 
309 1 9.97738 17.2813 9.40677 -1.91114e-14 1.80064e-14 -6.59889e-15 
311 1 12.1946 17.2813 10.1907 1.99563e-14 1.81938e-14 4.72886e-15 
133 1 0 19.2015 9.40677 -1.42074e-14 -3.40006e-16 9.89833e-15 
135 1 2.2172 19.2015 10.1907 7.11713e-15 -5.13478e-16 -4.74967e-15 
141 1 3.32579 21.1216 9.40677 5.13305e-15 -3.05415e-14 -1.14145e-14 
143 1 5.54299 21.1216 10.1907 -1.19753e-15 -3.50742e-14 9.40914e-15 
325 1 6.65159 19.2015 9.40677 -8.99281e-15 2.77556e-17 9.2322e-15 
327 1 8.86879 19.2015 10.1907 8.93749e-15 -1.38778e-16 -1.01759e-14 
333 1 9.97738 21.1216 9.40677 -9.73527e-15 -3.45435e-14 -1.39819e-14 
335 1 12.1946 21.1216 10.1907 1.01759e-14 -3.52079e-14 1.25767e-14 
157 1 0 23.0418 9.40677 8.67362e-15 3.53939e-14 -5.77316e-15 
159 1 2.2172 23.0418 10.1907 -1.29714e-14 3.07412e-14 8.92689e-15 
165 1 3.32579 24.9619 9.40677 -1.32012e-14 -3.60822e-16 1.0339e-15 
167 1 5.54299 24.9619 10.1907 1.93596e-14 -2.63678e-16 -5.68642e-15 
349 1 6.65159 23.0418 9.40677 1.33921e-14 3.46546e-14 -5.56152e-15 
351 1 8.86879 23.0418 10.1907 -1.25038e-14 3.52496e-14 4.64559e-15 
357 1 9.97738 24.9619 9.40677 -3.09804e-14 -8.46545e-16 1.79717e-15 
359 1 12.1946 24.9619 10.1907 3.12528e-14 -6.17562e-16 -2.90393e-15 
181 1 0 26.8821 9.40677 0.0833252 -0.108684 -0.0589198 
183 1 2.2172 26.8821 10.1907 -0.0833252 -0.108684 0.0589198 
189 1 3.32579 28.8022 9.40677 -0.159768 0.0949983 0.112973 
191 1 5.54299 28.8022 10.1907 0.159768 0.0949983 -0.112973 
373 1 6.65159 26.8821 9.40677 0.0833252 -0.108684 -0.0589198 
375 1 8.86879 26.8821 10.1907 -0.0833252 -0.108684 0.0589198 
381 1 9.97738 28.8022 9.40677 -0.159768 0.0949983 0.112973 
383 1 12.1946 28.8022 10.1907 0.159768 0.0949983 -0.112973 
16 1 2.2172 0 12.5424 -0.159768 -0.0949983 0.112973 
19 1 1.1086 1.92015 13.3263 -0.0833252 0.108684 0.0589198 
17 1 4.43439 0 13.3263 0.159768 -0.0949983 -0.112973 
24 1 5.54299 1.92015 12.5424 0.0833252 0.108684 -0.0589198 
211 1 7.76019 1.92015 13.3263 -0.0833252 0.108684 0.0589198 
208 1 8.86879 0 12.5424 -0.159768 -0.0949983 0.112973 
209 1 11.086 0 13.3263 0.159768 -0.0949983 -0.112973 
216 1 12.1946 1.92015 12.5424 0.0833252 0.108684 -0.0589198 
40 1 2.2172 3.8403 12.5424 4.91274e-15 -7.67631e-15 -1.62717e-15 
43 1 1.1086 5.76045 13.3263 -8.0734e-15 7.73227e-15 -2.23016e-14 
41 1 4.43439 3.8403 13.3263 -1.26555e-14 -5.35993e-15 -1.61642e-14 
48 1 5.54299 5.76045 12.5424 1.67939e-14 6.58848e-15 -5.00294e-15 
235 1 7.76019 5.76045 13.3263 -3.50592e-15 2.23111e-15 -2.7537e-14 
232 1 8.86879 3.8403 12.5424 -2.08444e-14 -6.8695e-16 -5.62744e-15 
233 1 11.086 3.8403 13.3263 1.91546e-14 -1.25859e-15 -1.60219e-14 
240 1 12.1946 5.76045 12.5424 3.07913e-15 4.31426e-15 2.02616e-15 
64 1 2.2172 7.68059 12.5424 3.01842e-16 -4.64906e-16 1.28023e-15 
67 1 1.1086 9.60074 13.3263 -9.20444e-15 -1.11396e-14 -2.17777e-14 
65 1 4.43439 7.68059 13.3263 -8.5092e-15 -2.56739e-16 -1.9023e-14 
72 1 5.54299 9.60074 12.5424 1.56212e-14 -5.88071e-15 -4.51028e-15 
259 1 7.76019 9.60074 13.3263 -7.3588e-15 -9.64861e-15 -2.36929e-14 
256 1 8.86879 7.68059 12.5424 -2.20102e-14 -2.77556e-16 -3.21271e-15 
257 1 11.086 7.68059 13.3263 2.1547e-14 -9.02056e-16 -1.93491e-14 
264 1 12.1946 9.60074 12.5424 5.81826e-15 -8.46719e-15 -1.40166e-15 
88 1 2.2172 11.5209 12.5424 1.20078e-14 2.35922e-16 -9.33628e-15 
91 1 1.1086 13.441 13.3263 -1.31145e-15 2.31858e-14 -2.46123e-14 
89 1 4.43439 11.5209 13.3263 -1.38058e-14 8.32667e-16 -1.44051e-14 
96 1 5.54299 13.441 12.5424 7.59809e-15 1.57513e-14 -4.12864e-16 
283 1 7.76019 13.441 13.3263 -1.4548e-15 1.88936e-14 -2.71276e-14 
280 1 8.86879 11.5209 12.5424 -9.67976e-15 -3.81639e-16 -1.16643e-14 
281 1 11.086 11.5209 13.3263 1.07863e-14 -1.31839e-16 -1.14006e-14 
288 1 12.1946 13.441 12.5424 -2.28983e-16 1.7264e-14 2.75474e-15 
112 1 2.2172 15.3612 12.5424 7.87564e-16 -2.40397e-14 6.10623e-16 
115 1 1.1086 17.2813 13.3263 -3.27169e-15 2.31581e-14 -2.31377e-14 
113 1 4.43439 15.3612 13.3263 -5.42644e-15 -1.58723e-14 -2.32904e-14 
120 1 5.54299 17.2813 12.5424 8.92689e-15 1.53072e-14 -1.35655e-15 
307 1 7.76019 17.2813 13.3263 -1.70806e-15 1.89908e-14 -2.67668e-14 
304 1 8.86879 15.3612 12.5424 -2.03379e-14 -1.86309e-14 -2.9074e-15 
305 1 11.086 15.3612 13.3263 1.98646e-14 -1.82242e-14 -1.90993e-14 
312 1 12.1946 17.2813 12.5424 1.16573e-15 1.78954e-14 1.75901e-15 
136 1 2.2172 19.2015 12.5424 -1.34129e-14 -5.82867e-16 1.0613e-14 
139 1 1.1086 21.1216 13.3263 -1.30972e-14 -3.63918e-14 -1.96961e-14 
137 1 4.43439 19.2015 13.3263 5.65637e-15 1.07553e-15 -2.93966e-14 
144 1 5.54299 21.1216 12.5424 1.73993e-14 -3.1905e-14 -7.06379e-15 
331 1 7.76019 21.1216 13.3263 -1.2205e-14 -3.64109e-14 -2.00708e-14 
328 1 8.86879 19.2015 12.5424 -3.26475e-14 -6.93889e-17 4.29864e-15 
329 1 11.086 19.2015 13.3263 3.14628e-14 1.73472e-16 -2.48135e-14 
336 1 12.1946 21.1216 12.5424 1.27467e-14 -3.5201e-14 -5.31519e-15 
160 1 2.2172 23.0418 12.5424 7.62584e-15 3.65614e-14 -6.43235e-15 
163 1 1.1086 24.9619 13.3263 9.82894e-15 -1.36002e-15 -3.33102e-14 
161 1 4.43439 23.0418 13.3263 -1.3535e-14 3.00428e-14 -1.56299e-14 
168 1 5.54299 24.9619 12.5424 -5.96745e-16 -9.71445e-17 5.68642e-15 
355 1 7.76019 24.9619 13.3263 9.77837e-15 6.93889e-17 -3.38791e-14 
352 1 8.86879 23.0418 12.5424 -9.61731e-15 3.56382e-14 -1.1699e-14 
353 1 11.086 23.0418 13.3263 9.20472e-15 3.47583e-14 -1.04222e-14 
360 1 12.1946 24.9619 12.5424 -9.36057e-15 -3.88578e-16 9.00668e-15 
184 1 2.2172 26.8821 12.5424 0.0833252 -0.108684 -0.0589198 
187 1 1.1086 28.8022 13.3263 0.159768 0.0949983 -0.112973 
185 1 4.43439 26.8821 13.3263 -0.0833252 -0.108684 0.0589198 
192 1 5.54299 28.8022 12.5424 -0.159768 0.0949983 0.112973 
379 1 7.76019 28.8022 13.3263 0.159768 0.0949983 -0.112973 
376 1 8.86879 26.8821 12.5424 0.0833252 -0.108684 -0.0589198 
377 1 11.086 26.8821 13.3263 -0.0833252 -0.108684 0.0589198 
384 1 12.1946 28.8022 12.5424 -0.159768 0.0949983 0.112973 
14 1 0 0 16.4618 0.159768 -0.0949983 -0.112973 
20 1 1.1086 1.92015 15.6779 0.0833252 0.108684 -0.0589198 
22 1 3.32579 1.92015 16.4618 -0.0833252 0.108684 0.0589198 
18 1 4.43439 0 15.6779 -0.159768 -0.0949983 0.112973 
206 1 6.65159 0 16.4618 0.159768 -0.0949983 -0.112973 
212 1 7.76019 1.92015 15.6779 0.0833252 0.108684 -0.0589198 
210 1 11.086 0 15.6779 -0.159768 -0.0949983 0.112973 
214 1 9.97738 1.92015 16.4618 -0.0833252 0.108684 0.0589198 
38 1 0 3.8403 16.4618 -6.00214e-15 -5.73534e-16 3.7928e-14 
44 1 1.1086 5.76045 15.6779 -2.17881e-15 4.18589e-15 5.90153e-15 
46 1 3.32579 5.76045 16.4618 3.1502e-15 5.77223e-15 4.02282e-14 
42 1 4.43439 3.8403 15.6779 -3.81639e-15 -5.51816e-15 4.72539e-15 
230 1 6.65159 3.8403 16.4618 3.86512e-15 -6.23819e-15 4.02976e-14 
236 1 7.76019 5.76045 15.6779 4.18589e-15 5.89459e-15 8.35443e-15 
234 1 11.086 3.8403 15.6779 1.73715e-14 -4.2586e-15 8.04912e-16 
238 1 9.97738 5.76045 16.4618 -1.69734e-14 5.19344e-15 4.52902e-14 
62 1 0 7.68059 16.4618 -1.56819e-15 -2.98372e-16 3.49963e-14 
68 1 1.1086 9.60074 15.6779 -3.19189e-16 -8.55219e-15 5.06192e-15 
70 1 3.32579 9.60074 16.4618 4.15999e-15 -6.20771e-15 4.00652e-14 
66 1 4.43439 7.68059 15.6779 -6.70991e-15 3.53884e-16 7.9832e-15 
254 1 6.65159 7.68059 16.4618 5.8485e-15 -1.66533e-16 3.66616e-14 
260 1 7.76019 9.60074 15.6779 2.36963e-15 -5.86337e-15 8.46892e-15 
258 1 11.086 7.68059 15.6779 1.30382e-14 -1.38778e-16 3.67761e-15 
262 1 9.97738 9.60074 16.4618 -1.76553e-14 -9.88268e-15 4.81767e-14 
86 1 0 11.5209 16.4618 -1.21084e-14 4.57967e-16 4.24903e-14 
92 1 1.1086 13.441 15.6779 -7.19043e-15 1.9677e-14 8.33014e-15 
94 1 3.32579 13.441 16.4618 9.49185e-15 1.62667e-14 3.57249e-14 
90 1 4.43439 11.5209 15.6779 -4.16334e-17 -5.06539e-16 2.38351e-15 
278 1 6.65159 11.5209 16.4618 -6.77731e-16 -4.996e-16 4.29934e-14 
284 1 7.76019 13.441 15.6779 -2.58647e-15 1.67939e-14 1.28508e-14 
282 1 11.086 11.5209 15.6779 2.55802e-14 2.08167e-16 -4.72192e-15 
286 1 9.97738 13.441 16.4618 -1.40832e-14 1.75787e-14 4.39752e-14 
110 1 0 15.3612 16.4618 3.33067e-16 -1.93812e-14 3.4233e-14 
116 1 1.1086 17.2813 15.6779 -5.74367e-15 1.86847e-14 7.36564e-15 
118 1 3.32579 17.2813 16.4618 7.89591e-15 1.6232e-14 3.6797e-14 
114 1 4.43439 15.3612 15.6779 -8.95117e-15 -1.66187e-14 1.04014e-14 
302 1 6.65159 15.3612 16.4618 8.4331e-15 -1.72007e-14 3.62523e-14 
308 1 7.76019 17.2813 15.6779 -8.4828e-16 1.6662e-14 1.15984e-14 
306 1 11.086 15.3612 15.6779 1.50713e-14 -1.78335e-14 2.81372e-15 
310 1 9.97738 17.2813 16.4618 -1.5523e-14 1.78632e-14 4.47316e-14 
134 1 0 19.2015 16.4618 1.2372e-14 -9.71445e-17 2.54692e-14 
140 1 1.1086 21.1216 15.6779 1.88217e-15 -3.25174e-14 3.52843e-15 
142 1 3.32579 21.1216 16.4618 -2.27781e-15 -3.3507e-14 4.40759e-14 
138 1 4.43439 19.2015 15.6779 -1.95607e-14 -9.71445e-17 1.57721e-14 
326 1 6.65159 19.2015 16.4618 1.95026e-14 3.88578e-16 2.87617e-14 
332 1 7.76019 21.1216 15.6779 8.45851e-15 -3.36137e-14 5.85296e-15 
330 1 11.086 19.2015 15.6779 2.56739e-15 1.23512e-15 1.02106e-14 
334 1 9.97738 21.1216 16.4618 -2.30418e-14 -3.3543e-14 5.04458e-14 
158 1 0 23.0418 16.4618 -8.73954e-15 3.19535e-14 4.00409e-14 
164 1 1.1086 24.9619 15.6779 -1.81955e-14 -1.94289e-16 1.54564e-14 
166 1 3.32579 24.9619 16.4618 1.90907e-14 -7.49401e-16 2.95874e-14 
162 1 4.43439 23.0418 15.6779 1.7486e-15 3.36918e-14 2.67841e-15 
350 1 6.65159 23.0418 16.4618 -1.06452e-15 3.42531e-14 4.35103e-14 
356 1 7.76019 24.9619 15.6779 -1.06946e-14 -9.78384e-16 1.9762e-14 
354 1 11.086 23.0418 15.6779 2.34916e-14 3.27943e-14 -3.407e-15 
358 1 9.97738 24.9619 16.4618 -5.54192e-15 -4.30211e-16 3.60822e-14 
182 1 0 26.8821 16.4618 -0.0833252 -0.108684 0.0589198 
188 1 1.1086 28.8022 15.6779 -0.159768 0.0949983 0.112973 
190 1 3.32579 28.8022 16.4618 0.159768 0.0949983 -0.112973 
186 1 4.43439 26.8821 15.6779 0.0833252 -0.108684 -0.0589198 
374 1 6.65159 26.8821 16.4618 -0.0833252 -0.108684 0.0589198 
380 1 7.76019 28.8022 15.6779 -0.159768 0.0949983 0.112973 
378 1 11.086 26.8821 15.6779 0.0833252 -0.108684 -0.0589198 
382 1 9.97738 28.8022 16.4618 0.159768 0.0949983 -0.112973 
ITEM: TIMESTEP
56
ITEM: NUMBER OF ATOMS
384
ITEM: BOX BOUNDS pp ss pp
0 13.3032
-0.00307224 28.8053
0 18.8135
ITEM: ATOMS id type x y z fx fy fz 
1 1 -0.0101814 -0.00235454 0.00719936 6.76728e-10 3.80314e-10 -3.12175e-10 
3 1 2.22738 -0.00235454 0.776698 -5.98074e-10 5.27198e-10 5.5159e-10 
4 1 2.20702 -0.00235454 3.14279 6.46576e-10 4.09069e-10 -6.20718e-10 
9 1 3.32754 1.93733 -0.00123585 -3.07647e-10 -1.19576e-09 2.61553e-10 
11 1 5.54124 1.93733 0.785133 3.16986e-10 -1.13624e-09 -1.85243e-10 
12 1 5.54474 1.93733 3.13435 -1.72636e-10 -9.98587e-10 1.77956e-10 
193 1 6.64141 -0.00235454 0.00719936 6.23811e-10 5.12208e-10 -4.59511e-10 
195 1 8.87897 -0.00235454 0.776698 -7.03029e-10 3.71802e-10 4.49191e-10 
196 1 8.8586 -0.00235454 3.14279 6.26271e-10 5.033e-10 -4.15156e-10 
201 1 9.97913 1.93733 -0.00123585 -1.82059e-10 -9.61955e-10 2.3735e-10 
203 1 12.1928 1.93733 0.785133 2.24146e-10 -9.04931e-10 -1.40634e-10 
204 1 12.1963 1.93733 3.13435 -3.01616e-10 -9.92762e-10 5.09935e-11 
25 1 0.000809862 3.85352 -0.000572659 -3.27643e-09 1.84834e-09 2.3531e-09 
27 1 2.21639 3.85352 0.78447 3.20244e-09 2.04434e-09 -2.25777e-09 
28 1 2.21801 3.85352 3.13502 -3.18198e-09 2.00512e-09 2.29198e-09 
33 1 3.32623 5.77112 -0.00031011 1.82831e-09 4.64145e-11 -1.35941e-09 
35 1 5.54255 5.77112 0.784207 -1.86754e-09 1.50562e-10 1.27831e-09 
36 1 5.54343 5.77112 3.13528 1.71838e-09 4.94192e-11 -1.20617e-09 
217 1 6.6524 3.85352 -0.000572659 -3.15543e-09 1.9109e-09 2.2059e-09 
219 1 8.86798 3.85352 0.78447 3.23288e-09 1.96618e-09 -2.26071e-09 
220 1 8.8696 3.85352 3.13502 -3.21009e-09 1.86377e-09 2.23957e-09 
225 1 9.97782 5.77112 -0.00031011 1.74392e-09 -8.40573e-12 -1.35197e-09 
227 1 12.1941 5.77112 0.784207 -1.72834e-09 9.8447e-11 1.29252e-09 
228 1 12.195 5.77112 3.13528 1.80374e-09 3.46026e-11 -1.21188e-09 
49 1 0.000498112 7.68895 -0.000352218 -8.87479e-10 2.93415e-10 4.88744e-10 
51 1 2.2167 7.68895 0.78425 8.28158e-10 1.8025e-10 -6.46334e-10 
52 1 2.21769 7.68895 3.13524 -8.7844e-10 2.9401e-10 7.38216e-10 
57 1 3.3263 9.60671 -0.000354802 -2.61769e-09 1.02187e-09 1.86622e-09 
59 1 5.54249 9.60671 0.784252 2.59998e-09 8.43566e-10 -1.93367e-09 
60 1 5.54349 9.60671 3.13523 -2.65521e-09 9.96784e-10 1.90805e-09 
241 1 6.65209 7.68895 -0.000352218 -8.35332e-10 2.3705e-10 5.09737e-10 
243 1 8.86829 7.68895 0.78425 8.02496e-10 2.83556e-10 -5.16369e-10 
244 1 8.86928 7.68895 3.13524 -8.66736e-10 2.87585e-10 6.20897e-10 
249 1 9.97789 9.60671 -0.000354802 -2.56812e-09 8.98717e-10 1.78978e-09 
251 1 12.1941 9.60671 0.784252 2.5599e-09 7.51005e-10 -1.79719e-09 
252 1 12.1951 9.60671 3.13523 -2.50341e-09 8.61547e-10 1.8262e-09 
73 1 0.00049975 11.5245 -0.000353377 2.21751e-09 2.49423e-09 -1.44348e-09 
75 1 2.2167 11.5245 0.784251 -2.09424e-09 2.38329e-09 1.39778e-09 
76 1 2.2177 11.5245 3.13524 2.28082e-09 2.37718e-09 -1.60489e-09 
81 1 3.32629 13.4422 -0.000353462 -2.32947e-09 -2.93555e-09 1.89481e-09 
83 1 5.54249 13.4422 0.784251 2.35245e-09 -2.90851e-09 -1.71432e-09 
84 1 5.54349 13.4422 3.13524 -2.36628e-09 -3.04223e-09 1.54974e-09 
265 1 6.65209 11.5245 -0.000353377 2.13131e-09 2.51077e-09 -1.35403e-09 
267 1 8.86829 11.5245 0.784251 -2.20187e-09 2.35905e-09 1.5532e-09 
268 1 8.86929 11.5245 3.13524 2.12912e-09 2.40377e-09 -1.57407e-09 
273 1 9.97788 13.4422 -0.000353462 -2.32022e-09 -2.74653e-09 1.7885e-09 
275 1 12.1941 13.4422 0.784251 2.34703e-09 -2.80253e-09 -1.59696e-09 
276 1 12.1951 13.4422 3.13524 -2.27781e-09 -2.82949e-09 1.49537e-09 
97 1 0.000499871 15.36 -0.000353462 -2.39661e-09 2.78403e-09 1.808e-09 
99 1 2.2167 15.36 0.784251 2.36711e-09 2.94921e-09 -1.65631e-09 
100 1 2.2177 15.36 3.13524 -2.3835e-09 2.83782e-09 1.60463e-09 
105 1 3.32629 17.2778 -0.000353377 2.23277e-09 -2.53913e-09 -1.61344e-09 
107 1 5.54249 17.2778 0.784251 -2.2999e-09 -2.38793e-09 1.59991e-09 
108 1 5.54349 17.2778 3.13524 2.15593e-09 -2.31503e-09 -1.52747e-09 
289 1 6.65209 15.36 -0.000353462 -2.25607e-09 2.79432e-09 1.71643e-09 
291 1 8.86829 15.36 0.784251 2.31689e-09 2.77331e-09 -1.54169e-09 
292 1 8.86929 15.36 3.13524 -2.31024e-09 2.83812e-09 1.46817e-09 
297 1 9.97788 17.2778 -0.000353377 2.13978e-09 -2.48888e-09 -1.5343e-09 
299 1 12.1941 17.2778 0.784251 -2.03628e-09 -2.33091e-09 1.55048e-09 
300 1 12.1951 17.2778 3.13524 2.18183e-09 -2.38921e-09 -1.58126e-09 
121 1 0.000501766 19.1955 -0.000354802 -2.68134e-09 -9.59548e-10 1.73685e-09 
123 1 2.21669 19.1955 0.784252 2.5746e-09 -8.57731e-10 -1.84686e-09 
124 1 2.2177 19.1955 3.13523 -2.55658e-09 -8.44995e-10 2.02819e-09 
129 1 3.32629 21.1133 -0.000352218 -8.96308e-10 -1.05896e-10 4.27598e-10 
131 1 5.54249 21.1133 0.78425 8.37203e-10 -9.95099e-11 -6.81328e-10 
132 1 5.54349 21.1133 3.13524 -9.07836e-10 -2.09024e-10 8.23641e-10 
313 1 6.65209 19.1955 -0.000354802 -2.47879e-09 -9.6632e-10 1.61514e-09 
315 1 8.86828 19.1955 0.784252 2.58684e-09 -6.6428e-10 -1.81412e-09 
316 1 8.86929 19.1955 3.13523 -2.60268e-09 -8.35822e-10 1.82868e-09 
321 1 9.97788 21.1133 -0.000352218 -8.61097e-10 -3.89535e-10 5.29624e-10 