 
 500 atoms 
 
 1 atom types
 0.00000000000000000000 22.85032499999999799911 xlo xhi
 0.00000000000000000000 22.85032499999999799911 ylo yhi
 0.00000000000000000000 22.85032499999999799911 zlo zhi
 0.00000000000000000000 0.00000000000000000000 0.00000000000000000000 xy xz yz
 
 Atoms 
 
	1	1	0.00000000000000000000	0.00000000000000000000	0.00000000000000000000
	2	1	2.28503249999999979991	2.28503249999999979991	0.00000000000000000000
	3	1	2.28503249999999979991	0.00000000000000000000	2.28503249999999979991
	4	1	0.00000000000000000000	2.28503249999999979991	2.28503249999999979991
	5	1	0.00000000000000000000	0.00000000000000000000	4.57006499999999959982
	6	1	2.28503249999999979991	2.28503249999999979991	4.57006499999999959982
	7	1	2.28503249999999979991	0.00000000000000000000	6.85509749999999939973
	8	1	0.00000000000000000000	2.28503249999999979991	6.85509749999999939973
	9	1	0.00000000000000000000	0.00000000000000000000	9.14012999999999919964
	10	1	2.28503249999999979991	2.28503249999999979991	9.14012999999999919964
	11	1	2.28503249999999979991	0.00000000000000000000	11.42516249999999899956
	12	1	0.00000000000000000000	2.28503249999999979991	11.42516249999999899956
	13	1	0.00000000000000000000	0.00000000000000000000	13.71019499999999879947
	14	1	2.28503249999999979991	2.28503249999999979991	13.71019499999999879947
	15	1	2.28503249999999979991	0.00000000000000000000	15.99522749999999859938
	16	1	0.00000000000000000000	2.28503249999999979991	15.99522749999999859938
	17	1	0.00000000000000000000	0.00000000000000000000	18.28025999999999839929
	18	1	2.28503249999999979991	2.28503249999999979991	18.28025999999999839929
	19	1	2.28503249999999979991	0.00000000000000000000	20.56529249999999819920
	20	1	0.00000000000000000000	2.28503249999999979991	20.56529249999999819920
	21	1	0.00000000000000000000	4.57006499999999959982	0.00000000000000000000
	22	1	2.28503249999999979991	6.85509749999999939973	0.00000000000000000000
	23	1	2.28503249999999979991	4.57006499999999959982	2.28503249999999979991
	24	1	0.00000000000000000000	6.85509749999999939973	2.28503249999999979991
	25	1	0.00000000000000000000	4.57006499999999959982	4.57006499999999959982
	26	1	2.28503249999999979991	6.85509749999999939973	4.57006499999999959982
	27	1	2.28503249999999979991	4.57006499999999959982	6.85509749999999939973
	28	1	0.00000000000000000000	6.85509749999999939973	6.85509749999999939973
	29	1	0.00000000000000000000	4.57006499999999959982	9.14012999999999919964
	30	1	2.28503249999999979991	6.85509749999999939973	9.14012999999999919964
	31	1	2.28503249999999979991	4.57006499999999959982	11.42516249999999899956
	32	1	0.00000000000000000000	6.85509749999999939973	11.42516249999999899956
	33	1	0.00000000000000000000	4.57006499999999959982	13.71019499999999879947
	34	1	2.28503249999999979991	6.85509749999999939973	13.71019499999999879947
	35	1	2.28503249999999979991	4.57006499999999959982	15.99522749999999859938
	36	1	0.00000000000000000000	6.85509749999999939973	15.99522749999999859938
	37	1	0.00000000000000000000	4.57006499999999959982	18.28025999999999839929
	38	1	2.28503249999999979991	6.85509749999999939973	18.28025999999999839929
	39	1	2.28503249999999979991	4.57006499999999959982	20.56529249999999819920
	40	1	0.00000000000000000000	6.85509749999999939973	20.56529249999999819920
	41	1	0.00000000000000000000	9.14012999999999919964	0.00000000000000000000
	42	1	2.28503249999999979991	11.42516249999999899956	0.00000000000000000000
	43	1	2.28503249999999979991	9.14012999999999919964	2.28503249999999979991
	44	1	0.00000000000000000000	11.42516249999999899956	2.28503249999999979991
	45	1	0.00000000000000000000	9.14012999999999919964	4.57006499999999959982
	46	1	2.28503249999999979991	11.42516249999999899956	4.57006499999999959982
	47	1	2.28503249999999979991	9.14012999999999919964	6.85509749999999939973
	48	1	0.00000000000000000000	11.42516249999999899956	6.85509749999999939973
	49	1	0.00000000000000000000	9.14012999999999919964	9.14012999999999919964
	50	1	2.28503249999999979991	11.42516249999999899956	9.14012999999999919964
	51	1	2.28503249999999979991	9.14012999999999919964	11.42516249999999899956
	52	1	0.00000000000000000000	11.42516249999999899956	11.42516249999999899956
	53	1	0.00000000000000000000	9.14012999999999919964	13.71019499999999879947
	54	1	2.28503249999999979991	11.42516249999999899956	13.71019499999999879947
	55	1	2.28503249999999979991	9.14012999999999919964	15.99522749999999859938
	56	1	0.00000000000000000000	11.42516249999999899956	15.99522749999999859938
	57	1	0.00000000000000000000	9.14012999999999919964	18.28025999999999839929
	58	1	2.28503249999999979991	11.42516249999999899956	18.28025999999999839929
	59	1	2.28503249999999979991	9.14012999999999919964	20.56529249999999819920
	60	1	0.00000000000000000000	11.42516249999999899956	20.56529249999999819920
	61	1	0.00000000000000000000	13.71019499999999879947	0.00000000000000000000
	62	1	2.28503249999999979991	15.99522749999999859938	0.00000000000000000000
	63	1	2.28503249999999979991	13.71019499999999879947	2.28503249999999979991
	64	1	0.00000000000000000000	15.99522749999999859938	2.28503249999999979991
	65	1	0.00000000000000000000	13.71019499999999879947	4.57006499999999959982
	66	1	2.28503249999999979991	15.99522749999999859938	4.57006499999999959982
	67	1	2.28503249999999979991	13.71019499999999879947	6.85509749999999939973
	68	1	0.00000000000000000000	15.99522749999999859938	6.85509749999999939973
	69	1	0.00000000000000000000	13.71019499999999879947	9.14012999999999919964
	70	1	2.28503249999999979991	15.99522749999999859938	9.14012999999999919964
	71	1	2.28503249999999979991	13.71019499999999879947	11.42516249999999899956
	72	1	0.00000000000000000000	15.99522749999999859938	11.42516249999999899956
	73	1	0.00000000000000000000	13.71019499999999879947	13.71019499999999879947
	74	1	2.28503249999999979991	15.99522749999999859938	13.71019499999999879947
	75	1	2.28503249999999979991	13.71019499999999879947	15.99522749999999859938
	76	1	0.00000000000000000000	15.99522749999999859938	15.99522749999999859938
	77	1	0.00000000000000000000	13.71019499999999879947	18.28025999999999839929
	78	1	2.28503249999999979991	15.99522749999999859938	18.28025999999999839929
	79	1	2.28503249999999979991	13.71019499999999879947	20.56529249999999819920
	80	1	0.00000000000000000000	15.99522749999999859938	20.56529249999999819920
	81	1	0.00000000000000000000	18.28025999999999839929	0.00000000000000000000
	82	1	2.28503249999999979991	20.56529249999999819920	0.00000000000000000000
	83	1	2.28503249999999979991	18.28025999999999839929	2.28503249999999979991
	84	1	0.00000000000000000000	20.56529249999999819920	2.28503249999999979991
	85	1	0.00000000000000000000	18.28025999999999839929	4.57006499999999959982
	86	1	2.28503249999999979991	20.56529249999999819920	4.57006499999999959982
	87	1	2.28503249999999979991	18.28025999999999839929	6.85509749999999939973
	88	1	0.00000000000000000000	20.56529249999999819920	6.85509749999999939973
	89	1	0.00000000000000000000	18.28025999999999839929	9.14012999999999919964
	90	1	2.28503249999999979991	20.56529249999999819920	9.14012999999999919964
	91	1	2.28503249999999979991	18.28025999999999839929	11.42516249999999899956
	92	1	0.00000000000000000000	20.56529249999999819920	11.42516249999999899956
	93	1	0.00000000000000000000	18.28025999999999839929	13.71019499999999879947
	94	1	2.28503249999999979991	20.56529249999999819920	13.71019499999999879947
	95	1	2.28503249999999979991	18.28025999999999839929	15.99522749999999859938
	96	1	0.00000000000000000000	20.56529249999999819920	15.99522749999999859938
	97	1	0.00000000000000000000	18.28025999999999839929	18.28025999999999839929
	98	1	2.28503249999999979991	20.56529249999999819920	18.28025999999999839929
	99	1	2.28503249999999979991	18.28025999999999839929	20.56529249999999819920
	100	1	0.00000000000000000000	20.56529249999999819920	20.56529249999999819920
	101	1	4.57006499999999959982	0.00000000000000000000	0.00000000000000000000
	102	1	6.85509749999999939973	2.28503249999999979991	0.00000000000000000000
	103	1	6.85509749999999939973	0.00000000000000000000	2.28503249999999979991
	104	1	4.57006499999999959982	2.28503249999999979991	2.28503249999999979991
	105	1	4.57006499999999959982	0.00000000000000000000	4.57006499999999959982
	106	1	6.85509749999999939973	2.28503249999999979991	4.57006499999999959982
	107	1	6.85509749999999939973	0.00000000000000000000	6.85509749999999939973
	108	1	4.57006499999999959982	2.28503249999999979991	6.85509749999999939973
	109	1	4.57006499999999959982	0.00000000000000000000	9.14012999999999919964
	110	1	6.85509749999999939973	2.28503249999999979991	9.14012999999999919964
	111	1	6.85509749999999939973	0.00000000000000000000	11.42516249999999899956
	112	1	4.57006499999999959982	2.28503249999999979991	11.42516249999999899956
	113	1	4.57006499999999959982	0.00000000000000000000	13.71019499999999879947
	114	1	6.85509749999999939973	2.28503249999999979991	13.71019499999999879947
	115	1	6.85509749999999939973	0.00000000000000000000	15.99522749999999859938
	116	1	4.57006499999999959982	2.28503249999999979991	15.99522749999999859938
	117	1	4.57006499999999959982	0.00000000000000000000	18.28025999999999839929
	118	1	6.85509749999999939973	2.28503249999999979991	18.28025999999999839929
	119	1	6.85509749999999939973	0.00000000000000000000	20.56529249999999819920
	120	1	4.57006499999999959982	2.28503249999999979991	20.56529249999999819920
	121	1	4.57006499999999959982	4.57006499999999959982	0.00000000000000000000
	122	1	6.85509749999999939973	6.85509749999999939973	0.00000000000000000000
	123	1	6.85509749999999939973	4.57006499999999959982	2.28503249999999979991
	124	1	4.57006499999999959982	6.85509749999999939973	2.28503249999999979991
	125	1	4.57006499999999959982	4.57006499999999959982	4.57006499999999959982
	126	1	6.85509749999999939973	6.85509749999999939973	4.57006499999999959982
	127	1	6.85509749999999939973	4.57006499999999959982	6.85509749999999939973
	128	1	4.57006499999999959982	6.85509749999999939973	6.85509749999999939973
	129	1	4.57006499999999959982	4.57006499999999959982	9.14012999999999919964
	130	1	6.85509749999999939973	6.85509749999999939973	9.14012999999999919964
	131	1	6.85509749999999939973	4.57006499999999959982	11.42516249999999899956
	132	1	4.57006499999999959982	6.85509749999999939973	11.42516249999999899956
	133	1	4.57006499999999959982	4.57006499999999959982	13.71019499999999879947
	134	1	6.85509749999999939973	6.85509749999999939973	13.71019499999999879947
	135	1	6.85509749999999939973	4.57006499999999959982	15.99522749999999859938
	136	1	4.57006499999999959982	6.85509749999999939973	15.99522749999999859938
	137	1	4.57006499999999959982	4.57006499999999959982	18.28025999999999839929
	138	1	6.85509749999999939973	6.85509749999999939973	18.28025999999999839929
	139	1	6.85509749999999939973	4.57006499999999959982	20.56529249999999819920
	140	1	4.57006499999999959982	6.85509749999999939973	20.56529249999999819920
	141	1	4.57006499999999959982	9.14012999999999919964	0.00000000000000000000
	142	1	6.85509749999999939973	11.42516249999999899956	0.00000000000000000000
	143	1	6.85509749999999939973	9.14012999999999919964	2.28503249999999979991
	144	1	4.57006499999999959982	11.42516249999999899956	2.28503249999999979991
	145	1	4.57006499999999959982	9.14012999999999919964	4.57006499999999959982
	146	1	6.85509749999999939973	11.42516249999999899956	4.57006499999999959982
	147	1	6.85509749999999939973	9.14012999999999919964	6.85509749999999939973
	148	1	4.57006499999999959982	11.42516249999999899956	6.85509749999999939973
	149	1	4.57006499999999959982	9.14012999999999919964	9.14012999999999919964
	150	1	6.85509749999999939973	11.42516249999999899956	9.14012999999999919964
	151	1	6.85509749999999939973	9.14012999999999919964	11.42516249999999899956
	152	1	4.57006499999999959982	11.42516249999999899956	11.42516249999999899956
	153	1	4.57006499999999959982	9.14012999999999919964	13.71019499999999879947
	154	1	6.85509749999999939973	11.42516249999999899956	13.71019499999999879947
	155	1	6.85509749999999939973	9.14012999999999919964	15.99522749999999859938
	156	1	4.57006499999999959982	11.42516249999999899956	15.99522749999999859938
	157	1	4.57006499999999959982	9.14012999999999919964	18.28025999999999839929
	158	1	6.85509749999999939973	11.42516249999999899956	18.28025999999999839929
	159	1	6.85509749999999939973	9.14012999999999919964	20.56529249999999819920
	160	1	4.57006499999999959982	11.42516249999999899956	20.56529249999999819920
	161	1	4.57006499999999959982	13.71019499999999879947	0.00000000000000000000
	162	1	6.85509749999999939973	15.99522749999999859938	0.00000000000000000000
	163	1	6.85509749999999939973	13.71019499999999879947	2.28503249999999979991
	164	1	4.57006499999999959982	15.99522749999999859938	2.28503249999999979991
	165	1	4.57006499999999959982	13.71019499999999879947	4.57006499999999959982
	166	1	6.85509749999999939973	15.99522749999999859938	4.57006499999999959982
	167	1	6.85509749999999939973	13.71019499999999879947	6.85509749999999939973
	168	1	4.57006499999999959982	15.99522749999999859938	6.85509749999999939973
	169	1	4.57006499999999959982	13.71019499999999879947	9.14012999999999919964
	170	1	6.85509749999999939973	15.99522749999999859938	9.14012999999999919964
	171	1	6.85509749999999939973	13.71019499999999879947	11.42516249999999899956
	172	1	4.57006499999999959982	15.99522749999999859938	11.42516249999999899956
	173	1	4.57006499999999959982	13.71019499999999879947	13.71019499999999879947
	174	1	6.85509749999999939973	15.99522749999999859938	13.71019499999999879947
	175	1	6.85509749999999939973	13.71019499999999879947	15.99522749999999859938
	176	1	4.57006499999999959982	15.99522749999999859938	15.99522749999999859938
	177	1	4.57006499999999959982	13.71019499999999879947	18.28025999999999839929
	178	1	6.85509749999999939973	15.99522749999999859938	18.28025999999999839929
	179	1	6.85509749999999939973	13.71019499999999879947	20.56529249999999819920
	180	1	4.57006499999999959982	15.99522749999999859938	20.56529249999999819920
	181	1	4.57006499999999959982	18.28025999999999839929	0.00000000000000000000
	182	1	6.85509749999999939973	20.56529249999999819920	0.00000000000000000000
	183	1	6.85509749999999939973	18.28025999999999839929	2.28503249999999979991
	184	1	4.57006499999999959982	20.56529249999999819920	2.28503249999999979991
	185	1	4.57006499999999959982	18.28025999999999839929	4.57006499999999959982
	186	1	6.85509749999999939973	20.56529249999999819920	4.57006499999999959982
	187	1	6.85509749999999939973	18.28025999999999839929	6.85509749999999939973
	188	1	4.57006499999999959982	20.56529249999999819920	6.85509749999999939973
	189	1	4.57006499999999959982	18.28025999999999839929	9.14012999999999919964
	190	1	6.85509749999999939973	20.56529249999999819920	9.14012999999999919964
	191	1	6.85509749999999939973	18.28025999999999839929	11.42516249999999899956
	192	1	4.57006499999999959982	20.56529249999999819920	11.42516249999999899956
	193	1	4.57006499999999959982	18.28025999999999839929	13.71019499999999879947
	194	1	6.85509749999999939973	20.56529249999999819920	13.71019499999999879947
	195	1	6.85509749999999939973	18.28025999999999839929	15.99522749999999859938
	196	1	4.57006499999999959982	20.56529249999999819920	15.99522749999999859938
	197	1	4.57006499999999959982	18.28025999999999839929	18.28025999999999839929
	198	1	6.85509749999999939973	20.56529249999999819920	18.28025999999999839929
	199	1	6.85509749999999939973	18.28025999999999839929	20.56529249999999819920
	200	1	4.57006499999999959982	20.56529249999999819920	20.56529249999999819920
	201	1	9.14012999999999919964	0.00000000000000000000	0.00000000000000000000
	202	1	11.42516249999999899956	2.28503249999999979991	0.00000000000000000000
	203	1	11.42516249999999899956	0.00000000000000000000	2.28503249999999979991
	204	1	9.14012999999999919964	2.28503249999999979991	2.28503249999999979991
	205	1	9.14012999999999919964	0.00000000000000000000	4.57006499999999959982
	206	1	11.42516249999999899956	2.28503249999999979991	4.57006499999999959982
	207	1	11.42516249999999899956	0.00000000000000000000	6.85509749999999939973
	208	1	9.14012999999999919964	2.28503249999999979991	6.85509749999999939973
	209	1	9.14012999999999919964	0.00000000000000000000	9.14012999999999919964
	210	1	11.42516249999999899956	2.28503249999999979991	9.14012999999999919964
	211	1	11.42516249999999899956	0.00000000000000000000	11.42516249999999899956
	212	1	9.14012999999999919964	2.28503249999999979991	11.42516249999999899956
	213	1	9.14012999999999919964	0.00000000000000000000	13.71019499999999879947
	214	1	11.42516249999999899956	2.28503249999999979991	13.71019499999999879947
	215	1	11.42516249999999899956	0.00000000000000000000	15.99522749999999859938
	216	1	9.14012999999999919964	2.28503249999999979991	15.99522749999999859938
	217	1	9.14012999999999919964	0.00000000000000000000	18.28025999999999839929
	218	1	11.42516249999999899956	2.28503249999999979991	18.28025999999999839929
	219	1	11.42516249999999899956	0.00000000000000000000	20.56529249999999819920
	220	1	9.14012999999999919964	2.28503249999999979991	20.56529249999999819920
	221	1	9.14012999999999919964	4.57006499999999959982	0.00000000000000000000
	222	1	11.42516249999999899956	6.85509749999999939973	0.00000000000000000000
	223	1	11.42516249999999899956	4.57006499999999959982	2.28503249999999979991
	224	1	9.14012999999999919964	6.85509749999999939973	2.28503249999999979991
	225	1	9.14012999999999919964	4.57006499999999959982	4.57006499999999959982
	226	1	11.42516249999999899956	6.85509749999999939973	4.57006499999999959982
	227	1	11.42516249999999899956	4.57006499999999959982	6.85509749999999939973
	228	1	9.14012999999999919964	6.85509749999999939973	6.85509749999999939973
	229	1	9.14012999999999919964	4.57006499999999959982	9.14012999999999919964
	230	1	11.42516249999999899956	6.85509749999999939973	9.14012999999999919964
	231	1	11.42516249999999899956	4.57006499999999959982	11.42516249999999899956
	232	1	9.14012999999999919964	6.85509749999999939973	11.42516249999999899956
	233	1	9.14012999999999919964	4.57006499999999959982	13.71019499999999879947
	234	1	11.42516249999999899956	6.85509749999999939973	13.71019499999999879947
	235	1	11.42516249999999899956	4.57006499999999959982	15.99522749999999859938
	236	1	9.14012999999999919964	6.85509749999999939973	15.99522749999999859938
	237	1	9.14012999999999919964	4.57006499999999959982	18.28025999999999839929
	238	1	11.42516249999999899956	6.85509749999999939973	18.28025999999999839929
	239	1	11.42516249999999899956	4.57006499999999959982	20.56529249999999819920
	240	1	9.14012999999999919964	6.85509749999999939973	20.56529249999999819920
	241	1	9.14012999999999919964	9.14012999999999919964	0.00000000000000000000
	242	1	11.42516249999999899956	11.42516249999999899956	0.00000000000000000000
	243	1	11.42516249999999899956	9.14012999999999919964	2.28503249999999979991
	244	1	9.14012999999999919964	11.42516249999999899956	2.28503249999999979991
	245	1	9.14012999999999919964	9.14012999999999919964	4.57006499999999959982
	246	1	11.42516249999999899956	11.42516249999999899956	4.57006499999999959982
	247	1	11.42516249999999899956	9.14012999999999919964	6.85509749999999939973
	248	1	9.14012999999999919964	11.42516249999999899956	6.85509749999999939973
	249	1	9.14012999999999919964	9.14012999999999919964	9.14012999999999919964
	250	1	11.42516249999999899956	11.42516249999999899956	9.14012999999999919964
	251	1	11.42516249999999899956	9.14012999999999919964	11.42516249999999899956
	252	1	9.14012999999999919964	11.42516249999999899956	11.42516249999999899956
	253	1	9.14012999999999919964	9.14012999999999919964	13.71019499999999879947
	254	1	11.42516249999999899956	11.42516249999999899956	13.71019499999999879947
	255	1	11.42516249999999899956	9.14012999999999919964	15.99522749999999859938
	256	1	9.14012999999999919964	11.42516249999999899956	15.99522749999999859938
	257	1	9.14012999999999919964	9.14012999999999919964	18.28025999999999839929
	258	1	11.42516249999999899956	11.42516249999999899956	18.28025999999999839929
	259	1	11.42516249999999899956	9.14012999999999919964	20.56529249999999819920
	260	1	9.14012999999999919964	11.42516249999999899956	20.56529249999999819920
	261	1	9.14012999999999919964	13.71019499999999879947	0.00000000000000000000
	262	1	11.42516249999999899956	15.99522749999999859938	0.00000000000000000000
	263	1	11.42516249999999899956	13.71019499999999879947	2.28503249999999979991
	264	1	9.14012999999999919964	15.99522749999999859938	2.28503249999999979991
	265	1	9.14012999999999919964	13.71019499999999879947	4.57006499999999959982
	266	1	11.42516249999999899956	15.99522749999999859938	4.57006499999999959982
	267	1	11.42516249999999899956	13.71019499999999879947	6.85509749999999939973
	268	1	9.14012999999999919964	15.99522749999999859938	6.85509749999999939973
	269	1	9.14012999999999919964	13.71019499999999879947	9.14012999999999919964
	270	1	11.42516249999999899956	15.99522749999999859938	9.14012999999999919964
	271	1	11.42516249999999899956	13.71019499999999879947	11.42516249999999899956
	272	1	9.14012999999999919964	15.99522749999999859938	11.42516249999999899956
	273	1	9.14012999999999919964	13.71019499999999879947	13.71019499999999879947
	274	1	11.42516249999999899956	15.99522749999999859938	13.71019499999999879947
	275	1	11.42516249999999899956	13.71019499999999879947	15.99522749999999859938
	276	1	9.14012999999999919964	15.99522749999999859938	15.99522749999999859938
	277	1	9.14012999999999919964	13.71019499999999879947	18.28025999999999839929
	278	1	11.42516249999999899956	15.99522749999999859938	18.28025999999999839929
	279	1	11.42516249999999899956	13.71019499999999879947	20.56529249999999819920
	280	1	9.14012999999999919964	15.99522749999999859938	20.56529249999999819920
	281	1	9.14012999999999919964	18.28025999999999839929	0.00000000000000000000
	282	1	11.42516249999999899956	20.56529249999999819920	0.00000000000000000000
	283	1	11.42516249999999899956	18.28025999999999839929	2.28503249999999979991
	284	1	9.14012999999999919964	20.56529249999999819920	2.28503249999999979991
	285	1	9.14012999999999919964	18.28025999999999839929	4.57006499999999959982
	286	1	11.42516249999999899956	20.56529249999999819920	4.57006499999999959982
	287	1	11.42516249999999899956	18.28025999999999839929	6.85509749999999939973
	288	1	9.14012999999999919964	20.56529249999999819920	6.85509749999999939973
	289	1	9.14012999999999919964	18.28025999999999839929	9.14012999999999919964
	290	1	11.42516249999999899956	20.56529249999999819920	9.14012999999999919964
	291	1	11.42516249999999899956	18.28025999999999839929	11.42516249999999899956
	292	1	9.14012999999999919964	20.56529249999999819920	11.42516249999999899956
	293	1	9.14012999999999919964	18.28025999999999839929	13.71019499999999879947
	294	1	11.42516249999999899956	20.56529249999999819920	13.71019499999999879947
	295	1	11.42516249999999899956	18.28025999999999839929	15.99522749999999859938
	296	1	9.14012999999999919964	20.56529249999999819920	15.99522749999999859938
	297	1	9.14012999999999919964	18.28025999999999839929	18.28025999999999839929
	298	1	11.42516249999999899956	20.56529249999999819920	18.28025999999999839929
	299	1	11.42516249999999899956	18.28025999999999839929	20.56529249999999819920
	300	1	9.14012999999999919964	20.56529249999999819920	20.56529249999999819920
	301	1	13.71019499999999879947	0.00000000000000000000	0.00000000000000000000
	302	1	15.99522749999999859938	2.28503249999999979991	0.00000000000000000000
	303	1	15.99522749999999859938	0.00000000000000000000	2.28503249999999979991
	304	1	13.71019499999999879947	2.28503249999999979991	2.28503249999999979991
	305	1	13.71019499999999879947	0.00000000000000000000	4.57006499999999959982
	306	1	15.99522749999999859938	2.28503249999999979991	4.57006499999999959982
	307	1	15.99522749999999859938	0.00000000000000000000	6.85509749999999939973
	308	1	13.71019499999999879947	2.28503249999999979991	6.85509749999999939973
	309	1	13.71019499999999879947	0.00000000000000000000	9.14012999999999919964
	310	1	15.99522749999999859938	2.28503249999999979991	9.14012999999999919964
	311	1	15.99522749999999859938	0.00000000000000000000	11.42516249999999899956
	312	1	13.71019499999999879947	2.28503249999999979991	11.42516249999999899956
	313	1	13.71019499999999879947	0.00000000000000000000	13.71019499999999879947
	314	1	15.99522749999999859938	2.28503249999999979991	13.71019499999999879947
	315	1	15.99522749999999859938	0.00000000000000000000	15.99522749999999859938
	316	1	13.71019499999999879947	2.28503249999999979991	15.99522749999999859938
	317	1	13.71019499999999879947	0.00000000000000000000	18.28025999999999839929
	318	1	15.99522749999999859938	2.28503249999999979991	18.28025999999999839929
	319	1	15.99522749999999859938	0.00000000000000000000	20.56529249999999819920
	320	1	13.71019499999999879947	2.28503249999999979991	20.56529249999999819920
	321	1	13.71019499999999879947	4.57006499999999959982	0.00000000000000000000
	322	1	15.99522749999999859938	6.85509749999999939973	0.00000000000000000000
	323	1	15.99522749999999859938	4.57006499999999959982	2.28503249999999979991
	324	1	13.71019499999999879947	6.85509749999999939973	2.28503249999999979991
	325	1	13.71019499999999879947	4.57006499999999959982	4.57006499999999959982
	326	1	15.99522749999999859938	6.85509749999999939973	4.57006499999999959982
	327	1	15.99522749999999859938	4.57006499999999959982	6.85509749999999939973
	328	1	13.71019499999999879947	6.85509749999999939973	6.85509749999999939973
	329	1	13.71019499999999879947	4.57006499999999959982	9.14012999999999919964
	330	1	15.99522749999999859938	6.85509749999999939973	9.14012999999999919964
	331	1	15.99522749999999859938	4.57006499999999959982	11.42516249999999899956
	332	1	13.71019499999999879947	6.85509749999999939973	11.42516249999999899956
	333	1	13.71019499999999879947	4.57006499999999959982	13.71019499999999879947
	334	1	15.99522749999999859938	6.85509749999999939973	13.71019499999999879947
	335	1	15.99522749999999859938	4.57006499999999959982	15.99522749999999859938
	336	1	13.71019499999999879947	6.85509749999999939973	15.99522749999999859938
	337	1	13.71019499999999879947	4.57006499999999959982	18.28025999999999839929
	338	1	15.99522749999999859938	6.85509749999999939973	18.28025999999999839929
	339	1	15.99522749999999859938	4.57006499999999959982	20.56529249999999819920
	340	1	13.71019499999999879947	6.85509749999999939973	20.56529249999999819920
	341	1	13.71019499999999879947	9.14012999999999919964	0.00000000000000000000
	342	1	15.99522749999999859938	11.42516249999999899956	0.00000000000000000000
	343	1	15.99522749999999859938	9.14012999999999919964	2.28503249999999979991
	344	1	13.71019499999999879947	11.42516249999999899956	2.28503249999999979991
	345	1	13.71019499999999879947	9.14012999999999919964	4.57006499999999959982
	346	1	15.99522749999999859938	11.42516249999999899956	4.57006499999999959982
	347	1	15.99522749999999859938	9.14012999999999919964	6.85509749999999939973
	348	1	13.71019499999999879947	11.42516249999999899956	6.85509749999999939973
	349	1	13.71019499999999879947	9.14012999999999919964	9.14012999999999919964
	350	1	15.99522749999999859938	11.42516249999999899956	9.14012999999999919964
	351	1	15.99522749999999859938	9.14012999999999919964	11.42516249999999899956
	352	1	13.71019499999999879947	11.42516249999999899956	11.42516249999999899956
	353	1	13.71019499999999879947	9.14012999999999919964	13.71019499999999879947
	354	1	15.99522749999999859938	11.42516249999999899956	13.71019499999999879947
	355	1	15.99522749999999859938	9.14012999999999919964	15.99522749999999859938
	356	1	13.71019499999999879947	11.42516249999999899956	15.99522749999999859938
	357	1	13.71019499999999879947	9.14012999999999919964	18.28025999999999839929
	358	1	15.99522749999999859938	11.42516249999999899956	18.28025999999999839929
	359	1	15.99522749999999859938	9.14012999999999919964	20.56529249999999819920
	360	1	13.71019499999999879947	11.42516249999999899956	20.56529249999999819920
	361	1	13.71019499999999879947	13.71019499999999879947	0.00000000000000000000
	362	1	15.99522749999999859938	15.99522749999999859938	0.00000000000000000000
	363	1	15.99522749999999859938	13.71019499999999879947	2.28503249999999979991
	364	1	13.71019499999999879947	15.99522749999999859938	2.28503249999999979991
	365	1	13.71019499999999879947	13.71019499999999879947	4.57006499999999959982
	366	1	15.99522749999999859938	15.99522749999999859938	4.57006499999999959982
	367	1	15.99522749999999859938	13.71019499999999879947	6.85509749999999939973
	368	1	13.71019499999999879947	15.99522749999999859938	6.85509749999999939973
	369	1	13.71019499999999879947	13.71019499999999879947	9.14012999999999919964
	370	1	15.99522749999999859938	15.99522749999999859938	9.14012999999999919964
	371	1	15.99522749999999859938	13.71019499999999879947	11.42516249999999899956
	372	1	13.71019499999999879947	15.99522749999999859938	11.42516249999999899956
	373	1	13.71019499999999879947	13.71019499999999879947	13.71019499999999879947
	374	1	15.99522749999999859938	15.99522749999999859938	13.71019499999999879947
	375	1	15.99522749999999859938	13.71019499999999879947	15.99522749999999859938
	376	1	13.71019499999999879947	15.99522749999999859938	15.99522749999999859938
	377	1	13.71019499999999879947	13.71019499999999879947	18.28025999999999839929
	378	1	15.99522749999999859938	15.99522749999999859938	18.28025999999999839929
	379	1	15.99522749999999859938	13.71019499999999879947	20.56529249999999819920
	380	1	13.71019499999999879947	15.99522749999999859938	20.56529249999999819920
	381	1	13.71019499999999879947	18.28025999999999839929	0.00000000000000000000
	382	1	15.99522749999999859938	20.56529249999999819920	0.00000000000000000000
	383	1	15.99522749999999859938	18.28025999999999839929	2.28503249999999979991
	384	1	13.71019499999999879947	20.56529249999999819920	2.28503249999999979991
	385	1	13.71019499999999879947	18.28025999999999839929	4.57006499999999959982