LAMMPS (10 Feb 2015)
units           metal
boundary        p p p
atom_style      atomic
read_data       datafile
  triclinic box = (0 0 0) to (22.8503 22.8503 22.8503) with tilt (0 0 0)
  1 by 1 by 1 MPI processor grid
  reading atoms ...
  500 atoms
pair_style      meam
pair_coeff      * *  /Users/masud/MD/potentials/library_Li.meam Li /Users/masud/MD/potentials/Li.meam  Li
neighbor        2.0 bin
neigh_modify    delay 10
dump            1 all custom 1 dump id type x y z
log             log
